<VTKFile type="StructuredGrid" version="0.1" byte_order="LittleEndian">
<StructuredGrid WholeExtent="1 71 1 81 0 0">
<Piece Extent="36 71 21 41 0 0">
<PointData></PointData>
<CellData></CellData>
<Points>
<DataArray NumberOfComponents="3" format="ascii" type ="Float32" Name="mesh">
1.500000 0.875000 0.0
1.542857 0.875000 0.0
1.585714 0.875000 0.0
1.628571 0.875000 0.0
1.671429 0.875000 0.0
1.714286 0.875000 0.0
1.757143 0.875000 0.0
1.800000 0.875000 0.0
1.842857 0.875000 0.0
1.885714 0.875000 0.0
1.928571 0.875000 0.0
1.971429 0.875000 0.0
2.014286 0.875000 0.0
2.057143 0.875000 0.0
2.100000 0.875000 0.0
2.142857 0.875000 0.0
2.185714 0.875000 0.0
2.228571 0.875000 0.0
2.271429 0.875000 0.0
2.314286 0.875000 0.0
2.357143 0.875000 0.0
2.400000 0.875000 0.0
2.442857 0.875000 0.0
2.485714 0.875000 0.0
2.528571 0.875000 0.0
2.571429 0.875000 0.0
2.614286 0.875000 0.0
2.657143 0.875000 0.0
2.700000 0.875000 0.0
2.742857 0.875000 0.0
2.785714 0.875000 0.0
2.828571 0.875000 0.0
2.871429 0.875000 0.0
2.914286 0.875000 0.0
2.957143 0.875000 0.0
3.000000 0.875000 0.0
1.500000 0.918750 0.0
1.542857 0.918750 0.0
1.585714 0.918750 0.0
1.628571 0.918750 0.0
1.671429 0.918750 0.0
1.714286 0.918750 0.0
1.757143 0.918750 0.0
1.800000 0.918750 0.0
1.842857 0.918750 0.0
1.885714 0.918750 0.0
1.928571 0.918750 0.0
1.971429 0.918750 0.0
2.014286 0.918750 0.0
2.057143 0.918750 0.0
2.100000 0.918750 0.0
2.142857 0.918750 0.0
2.185714 0.918750 0.0
2.228571 0.918750 0.0
2.271429 0.918750 0.0
2.314286 0.918750 0.0
2.357143 0.918750 0.0
2.400000 0.918750 0.0
2.442857 0.918750 0.0
2.485714 0.918750 0.0
2.528571 0.918750 0.0
2.571429 0.918750 0.0
2.614286 0.918750 0.0
2.657143 0.918750 0.0
2.700000 0.918750 0.0
2.742857 0.918750 0.0
2.785714 0.918750 0.0
2.828571 0.918750 0.0
2.871429 0.918750 0.0
2.914286 0.918750 0.0
2.957143 0.918750 0.0
3.000000 0.918750 0.0
1.500000 0.962500 0.0
1.542857 0.962500 0.0
1.585714 0.962500 0.0
1.628571 0.962500 0.0
1.671429 0.962500 0.0
1.714286 0.962500 0.0
1.757143 0.962500 0.0
1.800000 0.962500 0.0
1.842857 0.962500 0.0
1.885714 0.962500 0.0
1.928571 0.962500 0.0
1.971429 0.962500 0.0
2.014286 0.962500 0.0
2.057143 0.962500 0.0
2.100000 0.962500 0.0
2.142857 0.962500 0.0
2.185714 0.962500 0.0
2.228571 0.962500 0.0
2.271429 0.962500 0.0
2.314286 0.962500 0.0
2.357143 0.962500 0.0
2.400000 0.962500 0.0
2.442857 0.962500 0.0
2.485714 0.962500 0.0
2.528571 0.962500 0.0
2.571429 0.962500 0.0
2.614286 0.962500 0.0
2.657143 0.962500 0.0
2.700000 0.962500 0.0
2.742857 0.962500 0.0
2.785714 0.962500 0.0
2.828571 0.962500 0.0
2.871429 0.962500 0.0
2.914286 0.962500 0.0
2.957143 0.962500 0.0
3.000000 0.962500 0.0
1.500000 1.006250 0.0
1.542857 1.006250 0.0
1.585714 1.006250 0.0
1.628571 1.006250 0.0
1.671429 1.006250 0.0
1.714286 1.006250 0.0
1.757143 1.006250 0.0
1.800000 1.006250 0.0
1.842857 1.006250 0.0
1.885714 1.006250 0.0
1.928571 1.006250 0.0
1.971429 1.006250 0.0
2.014286 1.006250 0.0
2.057143 1.006250 0.0
2.100000 1.006250 0.0
2.142857 1.006250 0.0
2.185714 1.006250 0.0
2.228571 1.006250 0.0
2.271429 1.006250 0.0
2.314286 1.006250 0.0
2.357143 1.006250 0.0
2.400000 1.006250 0.0
2.442857 1.006250 0.0
2.485714 1.006250 0.0
2.528571 1.006250 0.0
2.571429 1.006250 0.0
2.614286 1.006250 0.0
2.657143 1.006250 0.0
2.700000 1.006250 0.0
2.742857 1.006250 0.0
2.785714 1.006250 0.0
2.828571 1.006250 0.0
2.871429 1.006250 0.0
2.914286 1.006250 0.0
2.957143 1.006250 0.0
3.000000 1.006250 0.0
1.500000 1.050000 0.0
1.542857 1.050000 0.0
1.585714 1.050000 0.0
1.628571 1.050000 0.0
1.671429 1.050000 0.0
1.714286 1.050000 0.0
1.757143 1.050000 0.0
1.800000 1.050000 0.0
1.842857 1.050000 0.0
1.885714 1.050000 0.0
1.928571 1.050000 0.0
1.971429 1.050000 0.0
2.014286 1.050000 0.0
2.057143 1.050000 0.0
2.100000 1.050000 0.0
2.142857 1.050000 0.0
2.185714 1.050000 0.0
2.228571 1.050000 0.0
2.271429 1.050000 0.0
2.314286 1.050000 0.0
2.357143 1.050000 0.0
2.400000 1.050000 0.0
2.442857 1.050000 0.0
2.485714 1.050000 0.0
2.528571 1.050000 0.0
2.571429 1.050000 0.0
2.614286 1.050000 0.0
2.657143 1.050000 0.0
2.700000 1.050000 0.0
2.742857 1.050000 0.0
2.785714 1.050000 0.0
2.828571 1.050000 0.0
2.871429 1.050000 0.0
2.914286 1.050000 0.0
2.957143 1.050000 0.0
3.000000 1.050000 0.0
1.500000 1.093750 0.0
1.542857 1.093750 0.0
1.585714 1.093750 0.0
1.628571 1.093750 0.0
1.671429 1.093750 0.0
1.714286 1.093750 0.0
1.757143 1.093750 0.0
1.800000 1.093750 0.0
1.842857 1.093750 0.0
1.885714 1.093750 0.0
1.928571 1.093750 0.0
1.971429 1.093750 0.0
2.014286 1.093750 0.0
2.057143 1.093750 0.0
2.100000 1.093750 0.0
2.142857 1.093750 0.0
2.185714 1.093750 0.0
2.228571 1.093750 0.0
2.271429 1.093750 0.0
2.314286 1.093750 0.0
2.357143 1.093750 0.0
2.400000 1.093750 0.0
2.442857 1.093750 0.0
2.485714 1.093750 0.0
2.528571 1.093750 0.0
2.571429 1.093750 0.0
2.614286 1.093750 0.0
2.657143 1.093750 0.0
2.700000 1.093750 0.0
2.742857 1.093750 0.0
2.785714 1.093750 0.0
2.828571 1.093750 0.0
2.871429 1.093750 0.0
2.914286 1.093750 0.0
2.957143 1.093750 0.0
3.000000 1.093750 0.0
1.500000 1.137500 0.0
1.542857 1.137500 0.0
1.585714 1.137500 0.0
1.628571 1.137500 0.0
1.671429 1.137500 0.0
1.714286 1.137500 0.0
1.757143 1.137500 0.0
1.800000 1.137500 0.0
1.842857 1.137500 0.0
1.885714 1.137500 0.0
1.928571 1.137500 0.0
1.971429 1.137500 0.0
2.014286 1.137500 0.0
2.057143 1.137500 0.0
2.100000 1.137500 0.0
2.142857 1.137500 0.0
2.185714 1.137500 0.0
2.228571 1.137500 0.0
2.271429 1.137500 0.0
2.314286 1.137500 0.0
2.357143 1.137500 0.0
2.400000 1.137500 0.0
2.442857 1.137500 0.0
2.485714 1.137500 0.0
2.528571 1.137500 0.0
2.571429 1.137500 0.0
2.614286 1.137500 0.0
2.657143 1.137500 0.0
2.700000 1.137500 0.0
2.742857 1.137500 0.0
2.785714 1.137500 0.0
2.828571 1.137500 0.0
2.871429 1.137500 0.0
2.914286 1.137500 0.0
2.957143 1.137500 0.0
3.000000 1.137500 0.0
1.500000 1.181250 0.0
1.542857 1.181250 0.0
1.585714 1.181250 0.0
1.628571 1.181250 0.0
1.671429 1.181250 0.0
1.714286 1.181250 0.0
1.757143 1.181250 0.0
1.800000 1.181250 0.0
1.842857 1.181250 0.0
1.885714 1.181250 0.0
1.928571 1.181250 0.0
1.971429 1.181250 0.0
2.014286 1.181250 0.0
2.057143 1.181250 0.0
2.100000 1.181250 0.0
2.142857 1.181250 0.0
2.185714 1.181250 0.0
2.228571 1.181250 0.0
2.271429 1.181250 0.0
2.314286 1.181250 0.0
2.357143 1.181250 0.0
2.400000 1.181250 0.0
2.442857 1.181250 0.0
2.485714 1.181250 0.0
2.528571 1.181250 0.0
2.571429 1.181250 0.0
2.614286 1.181250 0.0
2.657143 1.181250 0.0
2.700000 1.181250 0.0
2.742857 1.181250 0.0
2.785714 1.181250 0.0
2.828571 1.181250 0.0
2.871429 1.181250 0.0
2.914286 1.181250 0.0
2.957143 1.181250 0.0
3.000000 1.181250 0.0
1.500000 1.225000 0.0
1.542857 1.225000 0.0
1.585714 1.225000 0.0
1.628571 1.225000 0.0
1.671429 1.225000 0.0
1.714286 1.225000 0.0
1.757143 1.225000 0.0
1.800000 1.225000 0.0
1.842857 1.225000 0.0
1.885714 1.225000 0.0
1.928571 1.225000 0.0
1.971429 1.225000 0.0
2.014286 1.225000 0.0
2.057143 1.225000 0.0
2.100000 1.225000 0.0
2.142857 1.225000 0.0
2.185714 1.225000 0.0
2.228571 1.225000 0.0
2.271429 1.225000 0.0
2.314286 1.225000 0.0
2.357143 1.225000 0.0
2.400000 1.225000 0.0
2.442857 1.225000 0.0
2.485714 1.225000 0.0
2.528571 1.225000 0.0
2.571429 1.225000 0.0
2.614286 1.225000 0.0
2.657143 1.225000 0.0
2.700000 1.225000 0.0
2.742857 1.225000 0.0
2.785714 1.225000 0.0
2.828571 1.225000 0.0
2.871429 1.225000 0.0
2.914286 1.225000 0.0
2.957143 1.225000 0.0
3.000000 1.225000 0.0
1.500000 1.268750 0.0
1.542857 1.268750 0.0
1.585714 1.268750 0.0
1.628571 1.268750 0.0
1.671429 1.268750 0.0
1.714286 1.268750 0.0
1.757143 1.268750 0.0
1.800000 1.268750 0.0
1.842857 1.268750 0.0
1.885714 1.268750 0.0
1.928571 1.268750 0.0
1.971429 1.268750 0.0
2.014286 1.268750 0.0
2.057143 1.268750 0.0
2.100000 1.268750 0.0
2.142857 1.268750 0.0
2.185714 1.268750 0.0
2.228571 1.268750 0.0
2.271429 1.268750 0.0
2.314286 1.268750 0.0
2.357143 1.268750 0.0
2.400000 1.268750 0.0
2.442857 1.268750 0.0
2.485714 1.268750 0.0
2.528571 1.268750 0.0
2.571429 1.268750 0.0
2.614286 1.268750 0.0
2.657143 1.268750 0.0
2.700000 1.268750 0.0
2.742857 1.268750 0.0
2.785714 1.268750 0.0
2.828571 1.268750 0.0
2.871429 1.268750 0.0
2.914286 1.268750 0.0
2.957143 1.268750 0.0
3.000000 1.268750 0.0
1.500000 1.312500 0.0
1.542857 1.312500 0.0
1.585714 1.312500 0.0
1.628571 1.312500 0.0
1.671429 1.312500 0.0
1.714286 1.312500 0.0
1.757143 1.312500 0.0
1.800000 1.312500 0.0
1.842857 1.312500 0.0
1.885714 1.312500 0.0
1.928571 1.312500 0.0
1.971429 1.312500 0.0
2.014286 1.312500 0.0
2.057143 1.312500 0.0
2.100000 1.312500 0.0
2.142857 1.312500 0.0
2.185714 1.312500 0.0
2.228571 1.312500 0.0
2.271429 1.312500 0.0
2.314286 1.312500 0.0
2.357143 1.312500 0.0
2.400000 1.312500 0.0
2.442857 1.312500 0.0
2.485714 1.312500 0.0
2.528571 1.312500 0.0
2.571429 1.312500 0.0
2.614286 1.312500 0.0
2.657143 1.312500 0.0
2.700000 1.312500 0.0
2.742857 1.312500 0.0
2.785714 1.312500 0.0
2.828571 1.312500 0.0
2.871429 1.312500 0.0
2.914286 1.312500 0.0
2.957143 1.312500 0.0
3.000000 1.312500 0.0
1.500000 1.356250 0.0
1.542857 1.356250 0.0
1.585714 1.356250 0.0
1.628571 1.356250 0.0
1.671429 1.356250 0.0
1.714286 1.356250 0.0
1.757143 1.356250 0.0
1.800000 1.356250 0.0
1.842857 1.356250 0.0
1.885714 1.356250 0.0
1.928571 1.356250 0.0
1.971429 1.356250 0.0
2.014286 1.356250 0.0
2.057143 1.356250 0.0
2.100000 1.356250 0.0
2.142857 1.356250 0.0
2.185714 1.356250 0.0
2.228571 1.356250 0.0
2.271429 1.356250 0.0
2.314286 1.356250 0.0
2.357143 1.356250 0.0
2.400000 1.356250 0.0
2.442857 1.356250 0.0
2.485714 1.356250 0.0
2.528571 1.356250 0.0
2.571429 1.356250 0.0
2.614286 1.356250 0.0
2.657143 1.356250 0.0
2.700000 1.356250 0.0
2.742857 1.356250 0.0
2.785714 1.356250 0.0
2.828571 1.356250 0.0
2.871429 1.356250 0.0
2.914286 1.356250 0.0
2.957143 1.356250 0.0
3.000000 1.356250 0.0
1.500000 1.400000 0.0
1.542857 1.400000 0.0
1.585714 1.400000 0.0
1.628571 1.400000 0.0
1.671429 1.400000 0.0
1.714286 1.400000 0.0
1.757143 1.400000 0.0
1.800000 1.400000 0.0
1.842857 1.400000 0.0
1.885714 1.400000 0.0
1.928571 1.400000 0.0
1.971429 1.400000 0.0
2.014286 1.400000 0.0
2.057143 1.400000 0.0
2.100000 1.400000 0.0
2.142857 1.400000 0.0
2.185714 1.400000 0.0
2.228571 1.400000 0.0
2.271429 1.400000 0.0
2.314286 1.400000 0.0
2.357143 1.400000 0.0
2.400000 1.400000 0.0
2.442857 1.400000 0.0
2.485714 1.400000 0.0
2.528571 1.400000 0.0
2.571429 1.400000 0.0
2.614286 1.400000 0.0
2.657143 1.400000 0.0
2.700000 1.400000 0.0
2.742857 1.400000 0.0
2.785714 1.400000 0.0
2.828571 1.400000 0.0
2.871429 1.400000 0.0
2.914286 1.400000 0.0
2.957143 1.400000 0.0
3.000000 1.400000 0.0
1.500000 1.443750 0.0
1.542857 1.443750 0.0
1.585714 1.443750 0.0
1.628571 1.443750 0.0
1.671429 1.443750 0.0
1.714286 1.443750 0.0
1.757143 1.443750 0.0
1.800000 1.443750 0.0
1.842857 1.443750 0.0
1.885714 1.443750 0.0
1.928571 1.443750 0.0
1.971429 1.443750 0.0
2.014286 1.443750 0.0
2.057143 1.443750 0.0
2.100000 1.443750 0.0
2.142857 1.443750 0.0
2.185714 1.443750 0.0
2.228571 1.443750 0.0
2.271429 1.443750 0.0
2.314286 1.443750 0.0
2.357143 1.443750 0.0
2.400000 1.443750 0.0
2.442857 1.443750 0.0
2.485714 1.443750 0.0
2.528571 1.443750 0.0
2.571429 1.443750 0.0
2.614286 1.443750 0.0
2.657143 1.443750 0.0
2.700000 1.443750 0.0
2.742857 1.443750 0.0
2.785714 1.443750 0.0
2.828571 1.443750 0.0
2.871429 1.443750 0.0
2.914286 1.443750 0.0
2.957143 1.443750 0.0
3.000000 1.443750 0.0
1.500000 1.487500 0.0
1.542857 1.487500 0.0
1.585714 1.487500 0.0
1.628571 1.487500 0.0
1.671429 1.487500 0.0
1.714286 1.487500 0.0
1.757143 1.487500 0.0
1.800000 1.487500 0.0
1.842857 1.487500 0.0
1.885714 1.487500 0.0
1.928571 1.487500 0.0
1.971429 1.487500 0.0
2.014286 1.487500 0.0
2.057143 1.487500 0.0
2.100000 1.487500 0.0
2.142857 1.487500 0.0
2.185714 1.487500 0.0
2.228571 1.487500 0.0
2.271429 1.487500 0.0
2.314286 1.487500 0.0
2.357143 1.487500 0.0
2.400000 1.487500 0.0
2.442857 1.487500 0.0
2.485714 1.487500 0.0
2.528571 1.487500 0.0
2.571429 1.487500 0.0
2.614286 1.487500 0.0
2.657143 1.487500 0.0
2.700000 1.487500 0.0
2.742857 1.487500 0.0
2.785714 1.487500 0.0
2.828571 1.487500 0.0
2.871429 1.487500 0.0
2.914286 1.487500 0.0
2.957143 1.487500 0.0
3.000000 1.487500 0.0
1.500000 1.531250 0.0
1.542857 1.531250 0.0
1.585714 1.531250 0.0
1.628571 1.531250 0.0
1.671429 1.531250 0.0
1.714286 1.531250 0.0
1.757143 1.531250 0.0
1.800000 1.531250 0.0
1.842857 1.531250 0.0
1.885714 1.531250 0.0
1.928571 1.531250 0.0
1.971429 1.531250 0.0
2.014286 1.531250 0.0
2.057143 1.531250 0.0
2.100000 1.531250 0.0
2.142857 1.531250 0.0
2.185714 1.531250 0.0
2.228571 1.531250 0.0
2.271429 1.531250 0.0
2.314286 1.531250 0.0
2.357143 1.531250 0.0
2.400000 1.531250 0.0
2.442857 1.531250 0.0
2.485714 1.531250 0.0
2.528571 1.531250 0.0
2.571429 1.531250 0.0
2.614286 1.531250 0.0
2.657143 1.531250 0.0
2.700000 1.531250 0.0
2.742857 1.531250 0.0
2.785714 1.531250 0.0
2.828571 1.531250 0.0
2.871429 1.531250 0.0
2.914286 1.531250 0.0
2.957143 1.531250 0.0
3.000000 1.531250 0.0
1.500000 1.575000 0.0
1.542857 1.575000 0.0
1.585714 1.575000 0.0
1.628571 1.575000 0.0
1.671429 1.575000 0.0
1.714286 1.575000 0.0
1.757143 1.575000 0.0
1.800000 1.575000 0.0
1.842857 1.575000 0.0
1.885714 1.575000 0.0
1.928571 1.575000 0.0
1.971429 1.575000 0.0
2.014286 1.575000 0.0
2.057143 1.575000 0.0
2.100000 1.575000 0.0
2.142857 1.575000 0.0
2.185714 1.575000 0.0
2.228571 1.575000 0.0
2.271429 1.575000 0.0
2.314286 1.575000 0.0
2.357143 1.575000 0.0
2.400000 1.575000 0.0
2.442857 1.575000 0.0
2.485714 1.575000 0.0
2.528571 1.575000 0.0
2.571429 1.575000 0.0
2.614286 1.575000 0.0
2.657143 1.575000 0.0
2.700000 1.575000 0.0
2.742857 1.575000 0.0
2.785714 1.575000 0.0
2.828571 1.575000 0.0
2.871429 1.575000 0.0
2.914286 1.575000 0.0
2.957143 1.575000 0.0
3.000000 1.575000 0.0
1.500000 1.618750 0.0
1.542857 1.618750 0.0
1.585714 1.618750 0.0
1.628571 1.618750 0.0
1.671429 1.618750 0.0
1.714286 1.618750 0.0
1.757143 1.618750 0.0
1.800000 1.618750 0.0
1.842857 1.618750 0.0
1.885714 1.618750 0.0
1.928571 1.618750 0.0
1.971429 1.618750 0.0
2.014286 1.618750 0.0
2.057143 1.618750 0.0
2.100000 1.618750 0.0
2.142857 1.618750 0.0
2.185714 1.618750 0.0
2.228571 1.618750 0.0
2.271429 1.618750 0.0
2.314286 1.618750 0.0
2.357143 1.618750 0.0
2.400000 1.618750 0.0
2.442857 1.618750 0.0
2.485714 1.618750 0.0
2.528571 1.618750 0.0
2.571429 1.618750 0.0
2.614286 1.618750 0.0
2.657143 1.618750 0.0
2.700000 1.618750 0.0
2.742857 1.618750 0.0
2.785714 1.618750 0.0
2.828571 1.618750 0.0
2.871429 1.618750 0.0
2.914286 1.618750 0.0
2.957143 1.618750 0.0
3.000000 1.618750 0.0
1.500000 1.662500 0.0
1.542857 1.662500 0.0
1.585714 1.662500 0.0
1.628571 1.662500 0.0
1.671429 1.662500 0.0
1.714286 1.662500 0.0
1.757143 1.662500 0.0
1.800000 1.662500 0.0
1.842857 1.662500 0.0
1.885714 1.662500 0.0
1.928571 1.662500 0.0
1.971429 1.662500 0.0
2.014286 1.662500 0.0
2.057143 1.662500 0.0
2.100000 1.662500 0.0
2.142857 1.662500 0.0
2.185714 1.662500 0.0
2.228571 1.662500 0.0
2.271429 1.662500 0.0
2.314286 1.662500 0.0
2.357143 1.662500 0.0
2.400000 1.662500 0.0
2.442857 1.662500 0.0
2.485714 1.662500 0.0
2.528571 1.662500 0.0
2.571429 1.662500 0.0
2.614286 1.662500 0.0
2.657143 1.662500 0.0
2.700000 1.662500 0.0
2.742857 1.662500 0.0
2.785714 1.662500 0.0
2.828571 1.662500 0.0
2.871429 1.662500 0.0
2.914286 1.662500 0.0
2.957143 1.662500 0.0
3.000000 1.662500 0.0
1.500000 1.706250 0.0
1.542857 1.706250 0.0
1.585714 1.706250 0.0
1.628571 1.706250 0.0
1.671429 1.706250 0.0
1.714286 1.706250 0.0
1.757143 1.706250 0.0
1.800000 1.706250 0.0
1.842857 1.706250 0.0
1.885714 1.706250 0.0
1.928571 1.706250 0.0
1.971429 1.706250 0.0
2.014286 1.706250 0.0
2.057143 1.706250 0.0
2.100000 1.706250 0.0
2.142857 1.706250 0.0
2.185714 1.706250 0.0
2.228571 1.706250 0.0
2.271429 1.706250 0.0
2.314286 1.706250 0.0
2.357143 1.706250 0.0
2.400000 1.706250 0.0
2.442857 1.706250 0.0
2.485714 1.706250 0.0
2.528571 1.706250 0.0
2.571429 1.706250 0.0
2.614286 1.706250 0.0
2.657143 1.706250 0.0
2.700000 1.706250 0.0
2.742857 1.706250 0.0
2.785714 1.706250 0.0
2.828571 1.706250 0.0
2.871429 1.706250 0.0
2.914286 1.706250 0.0
2.957143 1.706250 0.0
3.000000 1.706250 0.0
1.500000 1.750000 0.0
1.542857 1.750000 0.0
1.585714 1.750000 0.0
1.628571 1.750000 0.0
1.671429 1.750000 0.0
1.714286 1.750000 0.0
1.757143 1.750000 0.0
1.800000 1.750000 0.0
1.842857 1.750000 0.0
1.885714 1.750000 0.0
1.928571 1.750000 0.0
1.971429 1.750000 0.0
2.014286 1.750000 0.0
2.057143 1.750000 0.0
2.100000 1.750000 0.0
2.142857 1.750000 0.0
2.185714 1.750000 0.0
2.228571 1.750000 0.0
2.271429 1.750000 0.0
2.314286 1.750000 0.0
2.357143 1.750000 0.0
2.400000 1.750000 0.0
2.442857 1.750000 0.0
2.485714 1.750000 0.0
2.528571 1.750000 0.0
2.571429 1.750000 0.0
2.614286 1.750000 0.0
2.657143 1.750000 0.0
2.700000 1.750000 0.0
2.742857 1.750000 0.0
2.785714 1.750000 0.0
2.828571 1.750000 0.0
2.871429 1.750000 0.0
2.914286 1.750000 0.0
2.957143 1.750000 0.0
3.000000 1.750000 0.0
</DataArray></Points>
<PointData>
<DataArray NumberOfComponents="1" format="ascii" type ="Float32" Name="phi">
1.175987
1.165019
1.147807
1.132038
1.117644
1.104566
1.092816
1.082469
1.073656
1.066455
1.060846
1.056788
1.054256
1.053226
1.053761
1.055963
1.059850
1.065377
1.072527
1.081376
1.091990
1.104302
1.118153
1.133291
1.149520
1.166788
1.185304
1.205454
1.227257
1.250249
1.273940
1.298100
1.322657
1.347692
1.373689
1.378498
1.136691
1.125515
1.107837
1.091516
1.076515
1.062844
1.050558
1.039780
1.030654
1.023212
1.017397
1.013180
1.010546
1.009474
1.010029
1.012325
1.016398
1.022211
1.029681
1.038786
1.049617
1.062283
1.076736
1.092698
1.109855
1.127994
1.147038
1.167218
1.189010
1.212529
1.237238
1.262562
1.288266
1.314284
1.340678
1.353986
1.097840
1.086539
1.068157
1.051136
1.035458
1.021155
1.008331
0.997155
0.987739
0.980029
0.973973
0.969579
0.966834
0.965717
0.966297
0.968690
0.972942
0.979063
0.986968
0.996521
1.007665
1.020513
1.035291
1.051925
1.070014
1.089197
1.109247
1.130079
1.151916
1.175321
1.200514
1.226902
1.253811
1.281016
1.308469
1.322254
1.059270
1.047862
1.028670
1.010877
0.994473
0.979529
0.966220
0.954702
0.944966
0.936913
0.930571
0.925983
0.923120
0.921956
0.922566
0.925058
0.929482
0.935887
0.944244
0.954406
0.966157
0.979395
0.994310
1.011191
1.029971
1.050197
1.071420
1.093377
1.115974
1.139441
1.164447
1.191293
1.219290
1.247736
1.276423
1.290812
1.020920
1.009439
0.989372
0.970750
0.953611
0.938089
0.924381
0.912486
0.902313
0.893844
0.887189
0.882394
0.879407
0.878194
0.878836
0.881439
0.886037
0.892686
0.901441
0.912223
0.924765
0.938807
0.954217
0.971177
0.990112
1.011034
1.033396
1.056622
1.080437
1.104767
1.129869
1.156474
1.184893
1.214454
1.244424
1.259455
0.982773
0.971294
0.950311
0.930850
0.913055
0.897039
0.882871
0.870440
0.859721
0.850806
0.843830
0.838814
0.835695
0.834432
0.835108
0.837854
0.842665
0.849540
0.858597
0.869896
0.883241
0.898282
0.914676
0.932247
0.951246
0.972229
0.995280
1.019711
1.044861
1.070483
1.096533
1.123283
1.151442
1.181411
1.212486
1.228136
0.944870
0.933587
0.911694
0.891421
0.873013
0.856415
0.841594
0.828491
0.817171
0.807801
0.800502
0.795251
0.791989
0.790673
0.791387
0.794303
0.799417
0.806613
0.815916
0.827542
0.841536
0.857565
0.875133
0.893858
0.913600
0.934652
0.957673
0.982777
1.009200
1.036222
1.063618
1.091384
1.119752
1.149467
1.180831
1.196865
0.907278
0.896531
0.873760
0.852612
0.833464
0.816093
0.800473
0.786620
0.774675
0.764851
0.757218
0.751714
0.748293
0.746916
0.747676
0.750767
0.756241
0.763954
0.773708
0.785564
0.799859
0.816633
0.835362
0.855434
0.876493
0.898409
0.921504
0.946522
0.973620
1.001971
1.030815
1.059957
1.089387
1.119336
1.150374
1.166254
0.869920
0.860048
0.836464
0.814346
0.794296
0.776014
0.759497
0.744844
0.732283
0.722005
0.714000
0.708204
0.704604
0.703161
0.703976
0.707240
0.713062
0.721386
0.731922
0.744366
0.758849
0.775864
0.795405
0.816800
0.839357
0.862703
0.886770
0.911916
0.938896
0.967917
0.998129
1.028736
1.059543
1.090546
1.121904
1.137707
0.832618
0.823878
0.799651
0.776573
0.755496
0.736191
0.718704
0.703250
0.690103
0.679328
0.670861
0.664723
0.660923
0.659407
0.660285
0.663728
0.669862
0.678763
0.690205
0.703708
0.718925
0.736083
0.755785
0.778061
0.802078
0.827025
0.852615
0.878837
0.906013
0.934907
0.965769
0.997735
1.029991
1.062352
1.094827
1.111099
0.795139
0.787791
0.763278
0.739349
0.717143
0.696724
0.678249
0.662022
0.648236
0.636824
0.627797
0.621272
0.617251
0.615657
0.616604
0.620248
0.626678
0.636065
0.648356
0.663070
0.679604
0.697634
0.717478
0.739860
0.764794
0.791317
0.818600
0.846409
0.874735
0.903874
0.934597
0.967182
1.000762
1.034535
1.068339
1.085247
0.757196
0.751534
0.727274
0.702744
0.679438
0.657866
0.638379
0.621288
0.606665
0.594455
0.584801
0.577856
0.573594
0.571914
0.572938
0.576848
0.583623
0.593393
0.606370
0.622250
0.640292
0.659855
0.680721
0.703281
0.728279
0.755755
0.784703
0.814251
0.844182
0.874495
0.905485
0.937934
0.972106
1.007138
1.042283
1.059850
0.718531
0.714981
0.691634
0.666682
0.642457
0.619756
0.599164
0.581008
0.565337
0.552215
0.541889
0.534492
0.529957
0.528182
0.529292
0.533563
0.540891
0.551099
0.564506
0.581295
0.600814
0.622131
0.644713
0.668447
0.693704
0.721241
0.751142
0.782366
0.814029
0.845928
0.878079
0.910797
0.944855
0.980462
1.016729
1.034878
0.678841
0.677788
0.656275
0.631004
0.606080
0.582330
0.560536
0.541135
0.524266
0.510153
0.499111
0.491201
0.486347
0.484458
0.485671
0.490343
0.498465
0.509544
0.523447
0.540666
0.561272
0.584359
0.608904
0.634480
0.661037
0.688913
0.718870
0.751014
0.784308
0.817891
0.851578
0.885407
0.919739
0.955353
0.991985
1.010372
0.638364
0.639909
0.620965
0.595577
0.570190
0.545561
0.522538
0.501748
0.483568
0.468396
0.456530
0.447992
0.442763
0.440740
0.442075
0.447141
0.456117
0.468520
0.483592
0.501342
0.522371
0.546702
0.573235
0.600901
0.629364
0.658603
0.688949
0.721158
0.755323
0.790445
0.825724
0.861008
0.896388
0.932304
0.968313
0.986144
0.597664
0.601716
0.585547
0.560307
0.534692
0.509441
0.485301
0.463071
0.443476
0.427091
0.414187
0.404873
0.399205
0.397028
0.398506
0.403976
0.413755
0.427592
0.444457
0.463652
0.485311
0.510088
0.537957
0.567706
0.598286
0.629424
0.661133
0.693756
0.728011
0.763944
0.800615
0.837357
0.874085
0.910702
0.944138
0.959320
0.556906
0.563118
0.549697
0.525068
0.499474
0.473870
0.448847
0.425286
0.404177
0.386304
0.372103
0.361865
0.355679
0.353323
0.354968
0.360923
0.371459
0.386647
0.405536
0.426912
0.450264
0.475794
0.504150
0.535246
0.567864
0.601049
0.634584
0.668511
0.703189
0.739253
0.776668
0.814639
0.852604
0.889393
0.915986
0.924736
0.516109
0.523817
0.512996
0.489730
0.464445
0.438676
0.413056
0.388380
0.365712
0.346079
0.330337
0.319017
0.312201
0.309627
0.311478
0.318102
0.329518
0.345914
0.366789
0.390660
0.416441
0.443814
0.473026
0.504664
0.538562
0.573613
0.609033
0.644649
0.680525
0.717026
0.754741
0.793457
0.832082
0.865538
0.881470
0.883091
0.475280
0.483659
0.475049
0.453939
0.429460
0.403742
0.377789
0.352276
0.328136
0.306603
0.289059
0.276399
0.268787
0.265945
0.268054
0.275680
0.288495
0.306136
0.328645
0.354967
0.383483
0.413358
0.444437
0.476994
0.511505
0.547706
0.584707
0.621965
0.659337
0.696932
0.735271
0.774258
0.811554
0.836065
0.841123
0.839436
0.434407
0.442696
0.435616
0.417126
0.394175
0.368921
0.342902
0.316876
0.291554
0.268165
0.248522
0.234109
0.225454
0.222279
0.224722
0.233683
0.248666
0.268303
0.292336
0.320554
0.351632
0.384186
0.417643
0.451959
0.487422
0.524307
0.562279
0.600770
0.639492
0.678406
0.717574
0.756074
0.787331
0.799955
0.797938
0.795703
0.393446
0.401125
0.394865
0.378950
0.358181
0.334033
0.308269
0.282024
0.255929
0.230943
0.208997
0.192297
0.182233
0.178631
0.181521
0.192070
0.209829
0.232593
0.258997
0.288961
0.321937
0.356757
0.392545
0.428924
0.465916
0.503752
0.542435
0.581715
0.621424
0.661360
0.700815
0.735246
0.755282
0.758489
0.754317
0.762922
</DataArray>
<DataArray NumberOfComponents="1" format="ascii" type ="Float32" Name="u">
0.000323
-0.000491
-0.001312
-0.002189
-0.003164
-0.004273
-0.005538
-0.006969
-0.008560
-0.010291
-0.012120
-0.013989
-0.015817
-0.017508
-0.018960
-0.020079
-0.020802
-0.021120
-0.021079
-0.020773
-0.020314
-0.019802
-0.019309
-0.018874
-0.018513
-0.018225
-0.018003
-0.017837
-0.017717
-0.017634
-0.017581
-0.017549
-0.017533
-0.017526
-0.017525
-0.017525
0.000411
-0.000514
-0.001452
-0.002456
-0.003573
-0.004840
-0.006278
-0.007894
-0.009674
-0.011586
-0.013576
-0.015567
-0.017463
-0.019153
-0.020523
-0.021483
-0.021988
-0.022056
-0.021769
-0.021252
-0.020631
-0.020006
-0.019440
-0.018961
-0.018572
-0.018267
-0.018034
-0.017861
-0.017735
-0.017648
-0.017592
-0.017559
-0.017542
-0.017535
-0.017534
-0.017534
0.000486
-0.000581
-0.001667
-0.002829
-0.004118
-0.005571
-0.007207
-0.009025
-0.011002
-0.013094
-0.015231
-0.017317
-0.019240
-0.020875
-0.022106
-0.022854
-0.023097
-0.022890
-0.022355
-0.021638
-0.020873
-0.020155
-0.019532
-0.019018
-0.018608
-0.018290
-0.018047
-0.017866
-0.017734
-0.017643
-0.017583
-0.017548
-0.017530
-0.017522
-0.017520
-0.017520
0.000534
-0.000707
-0.001975
-0.003329
-0.004820
-0.006485
-0.008338
-0.010369
-0.012545
-0.014806
-0.017063
-0.019206
-0.021106
-0.022630
-0.023666
-0.024153
-0.024103
-0.023613
-0.022837
-0.021940
-0.021054
-0.020261
-0.019593
-0.019053
-0.018626
-0.018295
-0.018042
-0.017852
-0.017714
-0.017617
-0.017552
-0.017514
-0.017494
-0.017485
-0.017483
-0.017483
0.000544
-0.000909
-0.002395
-0.003973
-0.005696
-0.007595
-0.009678
-0.011927
-0.014293
-0.016700
-0.019044
-0.021197
-0.023019
-0.024375
-0.025165
-0.025355
-0.024997
-0.024228
-0.023230
-0.022176
-0.021191
-0.020338
-0.019635
-0.019072
-0.018630
-0.018286
-0.018021
-0.017821
-0.017673
-0.017569
-0.017499
-0.017456
-0.017434
-0.017424
-0.017421
-0.017421
0.000509
-0.001193
-0.002934
-0.004771
-0.006751
-0.008903
-0.011225
-0.013687
-0.016226
-0.018750
-0.021138
-0.023249
-0.024938
-0.026074
-0.026578
-0.026449
-0.025782
-0.024750
-0.023555
-0.022369
-0.021303
-0.020401
-0.019667
-0.019083
-0.018622
-0.018263
-0.017984
-0.017771
-0.017613
-0.017499
-0.017422
-0.017375
-0.017349
-0.017338
-0.017334
-0.017334
0.000434
-0.001557
-0.003591
-0.005719
-0.007982
-0.010400
-0.012963
-0.015628
-0.018316
-0.020921
-0.023307
-0.025325
-0.026828
-0.027702
-0.027893
-0.027438
-0.026475
-0.025205
-0.023839
-0.022542
-0.021406
-0.020461
-0.019697
-0.019088
-0.018607
-0.018228
-0.017932
-0.017703
-0.017531
-0.017407
-0.017321
-0.017268
-0.017238
-0.017225
-0.017221
-0.017221
0.000337
-0.001984
-0.004349
-0.006800
-0.009369
-0.012066
-0.014869
-0.017723
-0.020534
-0.023181
-0.025518
-0.027391
-0.028665
-0.029244
-0.029111
-0.028341
-0.027105
-0.025623
-0.024110
-0.022716
-0.021517
-0.020528
-0.019731
-0.019093
-0.018586
-0.018182
-0.017864
-0.017616
-0.017428
-0.017290
-0.017195
-0.017134
-0.017101
-0.017085
-0.017080
-0.017080
0.000250
-0.002440
-0.005174
-0.007981
-0.010880
-0.013868
-0.016911
-0.019939
-0.022845
-0.025494
-0.027735
-0.029419
-0.030428
-0.030698
-0.030246
-0.029184
-0.027705
-0.026040
-0.024397
-0.022914
-0.021651
-0.020613
-0.019775
-0.019101
-0.018560
-0.018126
-0.017781
-0.017510
-0.017302
-0.017148
-0.017041
-0.016972
-0.016933
-0.016915
-0.016909
-0.016909
0.000218
-0.002876
-0.006016
-0.009213
-0.012468
-0.015763
-0.019048
-0.022237
-0.025209
-0.027821
-0.029921
-0.031380
-0.032105
-0.032069
-0.031323
-0.030004
-0.028315
-0.026489
-0.024726
-0.023153
-0.021821
-0.020724
-0.019834
-0.019114
-0.018532
-0.018061
-0.017682
-0.017383
-0.017151
-0.016978
-0.016857
-0.016778
-0.016733
-0.016712
-0.016705
-0.016705
0.000287
-0.003237
-0.006815
-0.010436
-0.014077
-0.017698
-0.021229
-0.024564
-0.027571
-0.030105
-0.032028
-0.033237
-0.033680
-0.033365
-0.032369
-0.030837
-0.028973
-0.027004
-0.025123
-0.023453
-0.022037
-0.020869
-0.019915
-0.019137
-0.018503
-0.017986
-0.017567
-0.017234
-0.016974
-0.016779
-0.016641
-0.016550
-0.016498
-0.016473
-0.016464
-0.016464
0.000499
-0.003470
-0.007513
-0.011587
-0.015642
-0.019606
-0.023381
-0.026843
-0.029849
-0.032264
-0.033981
-0.034940
-0.035132
-0.034593
-0.033410
-0.031719
-0.029714
-0.027613
-0.025610
-0.023828
-0.022313
-0.021056
-0.020022
-0.019173
-0.018475
-0.017903
-0.017437
-0.017063
-0.016769
-0.016548
-0.016389
-0.016284
-0.016223
-0.016194
-0.016184
-0.016184
0.000868
-0.003545
-0.008063
-0.012610
-0.017096
-0.021407
-0.025410
-0.028960
-0.031918
-0.034177
-0.035679
-0.036416
-0.036420
-0.035742
-0.034454
-0.032672
-0.030564
-0.028343
-0.026209
-0.024297
-0.022661
-0.021294
-0.020163
-0.019227
-0.018453
-0.017814
-0.017291
-0.016868
-0.016535
-0.016281
-0.016099
-0.015977
-0.015905
-0.015870
-0.015858
-0.015858
0.001365
-0.003472
-0.008455
-0.013470
-0.018373
-0.023000
-0.027178
-0.030751
-0.033603
-0.035679
-0.036984
-0.037564
-0.037475
-0.036764
-0.035476
-0.033685
-0.031527
-0.029206
-0.026935
-0.024874
-0.023094
-0.021595
-0.020346
-0.019306
-0.018440
-0.017722
-0.017130
-0.016650
-0.016269
-0.015978
-0.015766
-0.015623
-0.015538
-0.015496
-0.015481
-0.015481
0.001901
-0.003320
-0.008728
-0.014159
-0.019411
-0.024261
-0.028508
-0.032008
-0.034695
-0.036583
-0.037743
-0.038257
-0.038188
-0.037565
-0.036392
-0.034693
-0.032562
-0.030185
-0.027791
-0.025571
-0.023624
-0.021969
-0.020579
-0.019415
-0.018441
-0.017628
-0.016956
-0.016408
-0.015971
-0.015634
-0.015387
-0.015219
-0.015117
-0.015066
-0.015049
-0.015049
0.002315
-0.003225
-0.008967
-0.014689
-0.020128
-0.025024
-0.029179
-0.032496
-0.034979
-0.036711
-0.037804
-0.038357
-0.038421
-0.037997
-0.037049
-0.035550
-0.033546
-0.031197
-0.028734
-0.026375
-0.024257
-0.022426
-0.020872
-0.019562
-0.018459
-0.017536
-0.016769
-0.016140
-0.015636
-0.015245
-0.014956
-0.014758
-0.014636
-0.014574
-0.014552
-0.014552
0.002390
-0.003359
-0.009261
-0.015037
-0.020393
-0.025082
-0.028962
-0.032007
-0.034291
-0.035935
-0.037060
-0.037752
-0.038042
-0.037902
-0.037259
-0.036043
-0.034262
-0.032053
-0.029636
-0.027221
-0.024967
-0.022960
-0.021225
-0.019747
-0.018496
-0.017444
-0.016567
-0.015845
-0.015263
-0.014808
-0.014469
-0.014233
-0.014087