<VTKFile type="StructuredGrid" version="0.1" byte_order="LittleEndian">
<StructuredGrid WholeExtent="1 71 1 81 0 0">
<Piece Extent="1 36 41 61 0 0">
<PointData></PointData>
<CellData></CellData>
<Points>
<DataArray NumberOfComponents="3" format="ascii" type ="Float32" Name="mesh">
0.000000 1.750000 0.0
0.042857 1.750000 0.0
0.085714 1.750000 0.0
0.128571 1.750000 0.0
0.171429 1.750000 0.0
0.214286 1.750000 0.0
0.257143 1.750000 0.0
0.300000 1.750000 0.0
0.342857 1.750000 0.0
0.385714 1.750000 0.0
0.428571 1.750000 0.0
0.471429 1.750000 0.0
0.514286 1.750000 0.0
0.557143 1.750000 0.0
0.600000 1.750000 0.0
0.642857 1.750000 0.0
0.685714 1.750000 0.0
0.728571 1.750000 0.0
0.771429 1.750000 0.0
0.814286 1.750000 0.0
0.857143 1.750000 0.0
0.900000 1.750000 0.0
0.942857 1.750000 0.0
0.985714 1.750000 0.0
1.028571 1.750000 0.0
1.071429 1.750000 0.0
1.114286 1.750000 0.0
1.157143 1.750000 0.0
1.200000 1.750000 0.0
1.242857 1.750000 0.0
1.285714 1.750000 0.0
1.328571 1.750000 0.0
1.371429 1.750000 0.0
1.414286 1.750000 0.0
1.457143 1.750000 0.0
1.500000 1.750000 0.0
0.000000 1.793750 0.0
0.042857 1.793750 0.0
0.085714 1.793750 0.0
0.128571 1.793750 0.0
0.171429 1.793750 0.0
0.214286 1.793750 0.0
0.257143 1.793750 0.0
0.300000 1.793750 0.0
0.342857 1.793750 0.0
0.385714 1.793750 0.0
0.428571 1.793750 0.0
0.471429 1.793750 0.0
0.514286 1.793750 0.0
0.557143 1.793750 0.0
0.600000 1.793750 0.0
0.642857 1.793750 0.0
0.685714 1.793750 0.0
0.728571 1.793750 0.0
0.771429 1.793750 0.0
0.814286 1.793750 0.0
0.857143 1.793750 0.0
0.900000 1.793750 0.0
0.942857 1.793750 0.0
0.985714 1.793750 0.0
1.028571 1.793750 0.0
1.071429 1.793750 0.0
1.114286 1.793750 0.0
1.157143 1.793750 0.0
1.200000 1.793750 0.0
1.242857 1.793750 0.0
1.285714 1.793750 0.0
1.328571 1.793750 0.0
1.371429 1.793750 0.0
1.414286 1.793750 0.0
1.457143 1.793750 0.0
1.500000 1.793750 0.0
0.000000 1.837500 0.0
0.042857 1.837500 0.0
0.085714 1.837500 0.0
0.128571 1.837500 0.0
0.171429 1.837500 0.0
0.214286 1.837500 0.0
0.257143 1.837500 0.0
0.300000 1.837500 0.0
0.342857 1.837500 0.0
0.385714 1.837500 0.0
0.428571 1.837500 0.0
0.471429 1.837500 0.0
0.514286 1.837500 0.0
0.557143 1.837500 0.0
0.600000 1.837500 0.0
0.642857 1.837500 0.0
0.685714 1.837500 0.0
0.728571 1.837500 0.0
0.771429 1.837500 0.0
0.814286 1.837500 0.0
0.857143 1.837500 0.0
0.900000 1.837500 0.0
0.942857 1.837500 0.0
0.985714 1.837500 0.0
1.028571 1.837500 0.0
1.071429 1.837500 0.0
1.114286 1.837500 0.0
1.157143 1.837500 0.0
1.200000 1.837500 0.0
1.242857 1.837500 0.0
1.285714 1.837500 0.0
1.328571 1.837500 0.0
1.371429 1.837500 0.0
1.414286 1.837500 0.0
1.457143 1.837500 0.0
1.500000 1.837500 0.0
0.000000 1.881250 0.0
0.042857 1.881250 0.0
0.085714 1.881250 0.0
0.128571 1.881250 0.0
0.171429 1.881250 0.0
0.214286 1.881250 0.0
0.257143 1.881250 0.0
0.300000 1.881250 0.0
0.342857 1.881250 0.0
0.385714 1.881250 0.0
0.428571 1.881250 0.0
0.471429 1.881250 0.0
0.514286 1.881250 0.0
0.557143 1.881250 0.0
0.600000 1.881250 0.0
0.642857 1.881250 0.0
0.685714 1.881250 0.0
0.728571 1.881250 0.0
0.771429 1.881250 0.0
0.814286 1.881250 0.0
0.857143 1.881250 0.0
0.900000 1.881250 0.0
0.942857 1.881250 0.0
0.985714 1.881250 0.0
1.028571 1.881250 0.0
1.071429 1.881250 0.0
1.114286 1.881250 0.0
1.157143 1.881250 0.0
1.200000 1.881250 0.0
1.242857 1.881250 0.0
1.285714 1.881250 0.0
1.328571 1.881250 0.0
1.371429 1.881250 0.0
1.414286 1.881250 0.0
1.457143 1.881250 0.0
1.500000 1.881250 0.0
0.000000 1.925000 0.0
0.042857 1.925000 0.0
0.085714 1.925000 0.0
0.128571 1.925000 0.0
0.171429 1.925000 0.0
0.214286 1.925000 0.0
0.257143 1.925000 0.0
0.300000 1.925000 0.0
0.342857 1.925000 0.0
0.385714 1.925000 0.0
0.428571 1.925000 0.0
0.471429 1.925000 0.0
0.514286 1.925000 0.0
0.557143 1.925000 0.0
0.600000 1.925000 0.0
0.642857 1.925000 0.0
0.685714 1.925000 0.0
0.728571 1.925000 0.0
0.771429 1.925000 0.0
0.814286 1.925000 0.0
0.857143 1.925000 0.0
0.900000 1.925000 0.0
0.942857 1.925000 0.0
0.985714 1.925000 0.0
1.028571 1.925000 0.0
1.071429 1.925000 0.0
1.114286 1.925000 0.0
1.157143 1.925000 0.0
1.200000 1.925000 0.0
1.242857 1.925000 0.0
1.285714 1.925000 0.0
1.328571 1.925000 0.0
1.371429 1.925000 0.0
1.414286 1.925000 0.0
1.457143 1.925000 0.0
1.500000 1.925000 0.0
0.000000 1.968750 0.0
0.042857 1.968750 0.0
0.085714 1.968750 0.0
0.128571 1.968750 0.0
0.171429 1.968750 0.0
0.214286 1.968750 0.0
0.257143 1.968750 0.0
0.300000 1.968750 0.0
0.342857 1.968750 0.0
0.385714 1.968750 0.0
0.428571 1.968750 0.0
0.471429 1.968750 0.0
0.514286 1.968750 0.0
0.557143 1.968750 0.0
0.600000 1.968750 0.0
0.642857 1.968750 0.0
0.685714 1.968750 0.0
0.728571 1.968750 0.0
0.771429 1.968750 0.0
0.814286 1.968750 0.0
0.857143 1.968750 0.0
0.900000 1.968750 0.0
0.942857 1.968750 0.0
0.985714 1.968750 0.0
1.028571 1.968750 0.0
1.071429 1.968750 0.0
1.114286 1.968750 0.0
1.157143 1.968750 0.0
1.200000 1.968750 0.0
1.242857 1.968750 0.0
1.285714 1.968750 0.0
1.328571 1.968750 0.0
1.371429 1.968750 0.0
1.414286 1.968750 0.0
1.457143 1.968750 0.0
1.500000 1.968750 0.0
0.000000 2.012500 0.0
0.042857 2.012500 0.0
0.085714 2.012500 0.0
0.128571 2.012500 0.0
0.171429 2.012500 0.0
0.214286 2.012500 0.0
0.257143 2.012500 0.0
0.300000 2.012500 0.0
0.342857 2.012500 0.0
0.385714 2.012500 0.0
0.428571 2.012500 0.0
0.471429 2.012500 0.0
0.514286 2.012500 0.0
0.557143 2.012500 0.0
0.600000 2.012500 0.0
0.642857 2.012500 0.0
0.685714 2.012500 0.0
0.728571 2.012500 0.0
0.771429 2.012500 0.0
0.814286 2.012500 0.0
0.857143 2.012500 0.0
0.900000 2.012500 0.0
0.942857 2.012500 0.0
0.985714 2.012500 0.0
1.028571 2.012500 0.0
1.071429 2.012500 0.0
1.114286 2.012500 0.0
1.157143 2.012500 0.0
1.200000 2.012500 0.0
1.242857 2.012500 0.0
1.285714 2.012500 0.0
1.328571 2.012500 0.0
1.371429 2.012500 0.0
1.414286 2.012500 0.0
1.457143 2.012500 0.0
1.500000 2.012500 0.0
0.000000 2.056250 0.0
0.042857 2.056250 0.0
0.085714 2.056250 0.0
0.128571 2.056250 0.0
0.171429 2.056250 0.0
0.214286 2.056250 0.0
0.257143 2.056250 0.0
0.300000 2.056250 0.0
0.342857 2.056250 0.0
0.385714 2.056250 0.0
0.428571 2.056250 0.0
0.471429 2.056250 0.0
0.514286 2.056250 0.0
0.557143 2.056250 0.0
0.600000 2.056250 0.0
0.642857 2.056250 0.0
0.685714 2.056250 0.0
0.728571 2.056250 0.0
0.771429 2.056250 0.0
0.814286 2.056250 0.0
0.857143 2.056250 0.0
0.900000 2.056250 0.0
0.942857 2.056250 0.0
0.985714 2.056250 0.0
1.028571 2.056250 0.0
1.071429 2.056250 0.0
1.114286 2.056250 0.0
1.157143 2.056250 0.0
1.200000 2.056250 0.0
1.242857 2.056250 0.0
1.285714 2.056250 0.0
1.328571 2.056250 0.0
1.371429 2.056250 0.0
1.414286 2.056250 0.0
1.457143 2.056250 0.0
1.500000 2.056250 0.0
0.000000 2.100000 0.0
0.042857 2.100000 0.0
0.085714 2.100000 0.0
0.128571 2.100000 0.0
0.171429 2.100000 0.0
0.214286 2.100000 0.0
0.257143 2.100000 0.0
0.300000 2.100000 0.0
0.342857 2.100000 0.0
0.385714 2.100000 0.0
0.428571 2.100000 0.0
0.471429 2.100000 0.0
0.514286 2.100000 0.0
0.557143 2.100000 0.0
0.600000 2.100000 0.0
0.642857 2.100000 0.0
0.685714 2.100000 0.0
0.728571 2.100000 0.0
0.771429 2.100000 0.0
0.814286 2.100000 0.0
0.857143 2.100000 0.0
0.900000 2.100000 0.0
0.942857 2.100000 0.0
0.985714 2.100000 0.0
1.028571 2.100000 0.0
1.071429 2.100000 0.0
1.114286 2.100000 0.0
1.157143 2.100000 0.0
1.200000 2.100000 0.0
1.242857 2.100000 0.0
1.285714 2.100000 0.0
1.328571 2.100000 0.0
1.371429 2.100000 0.0
1.414286 2.100000 0.0
1.457143 2.100000 0.0
1.500000 2.100000 0.0
0.000000 2.143750 0.0
0.042857 2.143750 0.0
0.085714 2.143750 0.0
0.128571 2.143750 0.0
0.171429 2.143750 0.0
0.214286 2.143750 0.0
0.257143 2.143750 0.0
0.300000 2.143750 0.0
0.342857 2.143750 0.0
0.385714 2.143750 0.0
0.428571 2.143750 0.0
0.471429 2.143750 0.0
0.514286 2.143750 0.0
0.557143 2.143750 0.0
0.600000 2.143750 0.0
0.642857 2.143750 0.0
0.685714 2.143750 0.0
0.728571 2.143750 0.0
0.771429 2.143750 0.0
0.814286 2.143750 0.0
0.857143 2.143750 0.0
0.900000 2.143750 0.0
0.942857 2.143750 0.0
0.985714 2.143750 0.0
1.028571 2.143750 0.0
1.071429 2.143750 0.0
1.114286 2.143750 0.0
1.157143 2.143750 0.0
1.200000 2.143750 0.0
1.242857 2.143750 0.0
1.285714 2.143750 0.0
1.328571 2.143750 0.0
1.371429 2.143750 0.0
1.414286 2.143750 0.0
1.457143 2.143750 0.0
1.500000 2.143750 0.0
0.000000 2.187500 0.0
0.042857 2.187500 0.0
0.085714 2.187500 0.0
0.128571 2.187500 0.0
0.171429 2.187500 0.0
0.214286 2.187500 0.0
0.257143 2.187500 0.0
0.300000 2.187500 0.0
0.342857 2.187500 0.0
0.385714 2.187500 0.0
0.428571 2.187500 0.0
0.471429 2.187500 0.0
0.514286 2.187500 0.0
0.557143 2.187500 0.0
0.600000 2.187500 0.0
0.642857 2.187500 0.0
0.685714 2.187500 0.0
0.728571 2.187500 0.0
0.771429 2.187500 0.0
0.814286 2.187500 0.0
0.857143 2.187500 0.0
0.900000 2.187500 0.0
0.942857 2.187500 0.0
0.985714 2.187500 0.0
1.028571 2.187500 0.0
1.071429 2.187500 0.0
1.114286 2.187500 0.0
1.157143 2.187500 0.0
1.200000 2.187500 0.0
1.242857 2.187500 0.0
1.285714 2.187500 0.0
1.328571 2.187500 0.0
1.371429 2.187500 0.0
1.414286 2.187500 0.0
1.457143 2.187500 0.0
1.500000 2.187500 0.0
0.000000 2.231250 0.0
0.042857 2.231250 0.0
0.085714 2.231250 0.0
0.128571 2.231250 0.0
0.171429 2.231250 0.0
0.214286 2.231250 0.0
0.257143 2.231250 0.0
0.300000 2.231250 0.0
0.342857 2.231250 0.0
0.385714 2.231250 0.0
0.428571 2.231250 0.0
0.471429 2.231250 0.0
0.514286 2.231250 0.0
0.557143 2.231250 0.0
0.600000 2.231250 0.0
0.642857 2.231250 0.0
0.685714 2.231250 0.0
0.728571 2.231250 0.0
0.771429 2.231250 0.0
0.814286 2.231250 0.0
0.857143 2.231250 0.0
0.900000 2.231250 0.0
0.942857 2.231250 0.0
0.985714 2.231250 0.0
1.028571 2.231250 0.0
1.071429 2.231250 0.0
1.114286 2.231250 0.0
1.157143 2.231250 0.0
1.200000 2.231250 0.0
1.242857 2.231250 0.0
1.285714 2.231250 0.0
1.328571 2.231250 0.0
1.371429 2.231250 0.0
1.414286 2.231250 0.0
1.457143 2.231250 0.0
1.500000 2.231250 0.0
0.000000 2.275000 0.0
0.042857 2.275000 0.0
0.085714 2.275000 0.0
0.128571 2.275000 0.0
0.171429 2.275000 0.0
0.214286 2.275000 0.0
0.257143 2.275000 0.0
0.300000 2.275000 0.0
0.342857 2.275000 0.0
0.385714 2.275000 0.0
0.428571 2.275000 0.0
0.471429 2.275000 0.0
0.514286 2.275000 0.0
0.557143 2.275000 0.0
0.600000 2.275000 0.0
0.642857 2.275000 0.0
0.685714 2.275000 0.0
0.728571 2.275000 0.0
0.771429 2.275000 0.0
0.814286 2.275000 0.0
0.857143 2.275000 0.0
0.900000 2.275000 0.0
0.942857 2.275000 0.0
0.985714 2.275000 0.0
1.028571 2.275000 0.0
1.071429 2.275000 0.0
1.114286 2.275000 0.0
1.157143 2.275000 0.0
1.200000 2.275000 0.0
1.242857 2.275000 0.0
1.285714 2.275000 0.0
1.328571 2.275000 0.0
1.371429 2.275000 0.0
1.414286 2.275000 0.0
1.457143 2.275000 0.0
1.500000 2.275000 0.0
0.000000 2.318750 0.0
0.042857 2.318750 0.0
0.085714 2.318750 0.0
0.128571 2.318750 0.0
0.171429 2.318750 0.0
0.214286 2.318750 0.0
0.257143 2.318750 0.0
0.300000 2.318750 0.0
0.342857 2.318750 0.0
0.385714 2.318750 0.0
0.428571 2.318750 0.0
0.471429 2.318750 0.0
0.514286 2.318750 0.0
0.557143 2.318750 0.0
0.600000 2.318750 0.0
0.642857 2.318750 0.0
0.685714 2.318750 0.0
0.728571 2.318750 0.0
0.771429 2.318750 0.0
0.814286 2.318750 0.0
0.857143 2.318750 0.0
0.900000 2.318750 0.0
0.942857 2.318750 0.0
0.985714 2.318750 0.0
1.028571 2.318750 0.0
1.071429 2.318750 0.0
1.114286 2.318750 0.0
1.157143 2.318750 0.0
1.200000 2.318750 0.0
1.242857 2.318750 0.0
1.285714 2.318750 0.0
1.328571 2.318750 0.0
1.371429 2.318750 0.0
1.414286 2.318750 0.0
1.457143 2.318750 0.0
1.500000 2.318750 0.0
0.000000 2.362500 0.0
0.042857 2.362500 0.0
0.085714 2.362500 0.0
0.128571 2.362500 0.0
0.171429 2.362500 0.0
0.214286 2.362500 0.0
0.257143 2.362500 0.0
0.300000 2.362500 0.0
0.342857 2.362500 0.0
0.385714 2.362500 0.0
0.428571 2.362500 0.0
0.471429 2.362500 0.0
0.514286 2.362500 0.0
0.557143 2.362500 0.0
0.600000 2.362500 0.0
0.642857 2.362500 0.0
0.685714 2.362500 0.0
0.728571 2.362500 0.0
0.771429 2.362500 0.0
0.814286 2.362500 0.0
0.857143 2.362500 0.0
0.900000 2.362500 0.0
0.942857 2.362500 0.0
0.985714 2.362500 0.0
1.028571 2.362500 0.0
1.071429 2.362500 0.0
1.114286 2.362500 0.0
1.157143 2.362500 0.0
1.200000 2.362500 0.0
1.242857 2.362500 0.0
1.285714 2.362500 0.0
1.328571 2.362500 0.0
1.371429 2.362500 0.0
1.414286 2.362500 0.0
1.457143 2.362500 0.0
1.500000 2.362500 0.0
0.000000 2.406250 0.0
0.042857 2.406250 0.0
0.085714 2.406250 0.0
0.128571 2.406250 0.0
0.171429 2.406250 0.0
0.214286 2.406250 0.0
0.257143 2.406250 0.0
0.300000 2.406250 0.0
0.342857 2.406250 0.0
0.385714 2.406250 0.0
0.428571 2.406250 0.0
0.471429 2.406250 0.0
0.514286 2.406250 0.0
0.557143 2.406250 0.0
0.600000 2.406250 0.0
0.642857 2.406250 0.0
0.685714 2.406250 0.0
0.728571 2.406250 0.0
0.771429 2.406250 0.0
0.814286 2.406250 0.0
0.857143 2.406250 0.0
0.900000 2.406250 0.0
0.942857 2.406250 0.0
0.985714 2.406250 0.0
1.028571 2.406250 0.0
1.071429 2.406250 0.0
1.114286 2.406250 0.0
1.157143 2.406250 0.0
1.200000 2.406250 0.0
1.242857 2.406250 0.0
1.285714 2.406250 0.0
1.328571 2.406250 0.0
1.371429 2.406250 0.0
1.414286 2.406250 0.0
1.457143 2.406250 0.0
1.500000 2.406250 0.0
0.000000 2.450000 0.0
0.042857 2.450000 0.0
0.085714 2.450000 0.0
0.128571 2.450000 0.0
0.171429 2.450000 0.0
0.214286 2.450000 0.0
0.257143 2.450000 0.0
0.300000 2.450000 0.0
0.342857 2.450000 0.0
0.385714 2.450000 0.0
0.428571 2.450000 0.0
0.471429 2.450000 0.0
0.514286 2.450000 0.0
0.557143 2.450000 0.0
0.600000 2.450000 0.0
0.642857 2.450000 0.0
0.685714 2.450000 0.0
0.728571 2.450000 0.0
0.771429 2.450000 0.0
0.814286 2.450000 0.0
0.857143 2.450000 0.0
0.900000 2.450000 0.0
0.942857 2.450000 0.0
0.985714 2.450000 0.0
1.028571 2.450000 0.0
1.071429 2.450000 0.0
1.114286 2.450000 0.0
1.157143 2.450000 0.0
1.200000 2.450000 0.0
1.242857 2.450000 0.0
1.285714 2.450000 0.0
1.328571 2.450000 0.0
1.371429 2.450000 0.0
1.414286 2.450000 0.0
1.457143 2.450000 0.0
1.500000 2.450000 0.0
0.000000 2.493750 0.0
0.042857 2.493750 0.0
0.085714 2.493750 0.0
0.128571 2.493750 0.0
0.171429 2.493750 0.0
0.214286 2.493750 0.0
0.257143 2.493750 0.0
0.300000 2.493750 0.0
0.342857 2.493750 0.0
0.385714 2.493750 0.0
0.428571 2.493750 0.0
0.471429 2.493750 0.0
0.514286 2.493750 0.0
0.557143 2.493750 0.0
0.600000 2.493750 0.0
0.642857 2.493750 0.0
0.685714 2.493750 0.0
0.728571 2.493750 0.0
0.771429 2.493750 0.0
0.814286 2.493750 0.0
0.857143 2.493750 0.0
0.900000 2.493750 0.0
0.942857 2.493750 0.0
0.985714 2.493750 0.0
1.028571 2.493750 0.0
1.071429 2.493750 0.0
1.114286 2.493750 0.0
1.157143 2.493750 0.0
1.200000 2.493750 0.0
1.242857 2.493750 0.0
1.285714 2.493750 0.0
1.328571 2.493750 0.0
1.371429 2.493750 0.0
1.414286 2.493750 0.0
1.457143 2.493750 0.0
1.500000 2.493750 0.0
0.000000 2.537500 0.0
0.042857 2.537500 0.0
0.085714 2.537500 0.0
0.128571 2.537500 0.0
0.171429 2.537500 0.0
0.214286 2.537500 0.0
0.257143 2.537500 0.0
0.300000 2.537500 0.0
0.342857 2.537500 0.0
0.385714 2.537500 0.0
0.428571 2.537500 0.0
0.471429 2.537500 0.0
0.514286 2.537500 0.0
0.557143 2.537500 0.0
0.600000 2.537500 0.0
0.642857 2.537500 0.0
0.685714 2.537500 0.0
0.728571 2.537500 0.0
0.771429 2.537500 0.0
0.814286 2.537500 0.0
0.857143 2.537500 0.0
0.900000 2.537500 0.0
0.942857 2.537500 0.0
0.985714 2.537500 0.0
1.028571 2.537500 0.0
1.071429 2.537500 0.0
1.114286 2.537500 0.0
1.157143 2.537500 0.0
1.200000 2.537500 0.0
1.242857 2.537500 0.0
1.285714 2.537500 0.0
1.328571 2.537500 0.0
1.371429 2.537500 0.0
1.414286 2.537500 0.0
1.457143 2.537500 0.0
1.500000 2.537500 0.0
0.000000 2.581250 0.0
0.042857 2.581250 0.0
0.085714 2.581250 0.0
0.128571 2.581250 0.0
0.171429 2.581250 0.0
0.214286 2.581250 0.0
0.257143 2.581250 0.0
0.300000 2.581250 0.0
0.342857 2.581250 0.0
0.385714 2.581250 0.0
0.428571 2.581250 0.0
0.471429 2.581250 0.0
0.514286 2.581250 0.0
0.557143 2.581250 0.0
0.600000 2.581250 0.0
0.642857 2.581250 0.0
0.685714 2.581250 0.0
0.728571 2.581250 0.0
0.771429 2.581250 0.0
0.814286 2.581250 0.0
0.857143 2.581250 0.0
0.900000 2.581250 0.0
0.942857 2.581250 0.0
0.985714 2.581250 0.0
1.028571 2.581250 0.0
1.071429 2.581250 0.0
1.114286 2.581250 0.0
1.157143 2.581250 0.0
1.200000 2.581250 0.0
1.242857 2.581250 0.0
1.285714 2.581250 0.0
1.328571 2.581250 0.0
1.371429 2.581250 0.0
1.414286 2.581250 0.0
1.457143 2.581250 0.0
1.500000 2.581250 0.0
0.000000 2.625000 0.0
0.042857 2.625000 0.0
0.085714 2.625000 0.0
0.128571 2.625000 0.0
0.171429 2.625000 0.0
0.214286 2.625000 0.0
0.257143 2.625000 0.0
0.300000 2.625000 0.0
0.342857 2.625000 0.0
0.385714 2.625000 0.0
0.428571 2.625000 0.0
0.471429 2.625000 0.0
0.514286 2.625000 0.0
0.557143 2.625000 0.0
0.600000 2.625000 0.0
0.642857 2.625000 0.0
0.685714 2.625000 0.0
0.728571 2.625000 0.0
0.771429 2.625000 0.0
0.814286 2.625000 0.0
0.857143 2.625000 0.0
0.900000 2.625000 0.0
0.942857 2.625000 0.0
0.985714 2.625000 0.0
1.028571 2.625000 0.0
1.071429 2.625000 0.0
1.114286 2.625000 0.0
1.157143 2.625000 0.0
1.200000 2.625000 0.0
1.242857 2.625000 0.0
1.285714 2.625000 0.0
1.328571 2.625000 0.0
1.371429 2.625000 0.0
1.414286 2.625000 0.0
1.457143 2.625000 0.0
1.500000 2.625000 0.0
</DataArray></Points>
<PointData>
<DataArray NumberOfComponents="1" format="ascii" type ="Float32" Name="phi">
0.737328
0.748430
0.748800
0.749252
0.747737
0.735256
0.705080
0.664310
0.621633
0.578917
0.536219
0.493546
0.450902
0.408289
0.365705
0.323157
0.280655
0.238214
0.195841
0.153544
0.111334
0.069220
0.027851
-0.007816
-0.043372
-0.083741
-0.123816
-0.163234
-0.201338
-0.237273
-0.270222
-0.299487
-0.323460
-0.335441
-0.335061
-0.330512
0.704516
0.704682
0.705054
0.705535
0.706129
0.704427
0.691216
0.660337
0.619247
0.576427
0.533587
0.490752
0.447923
0.405099
0.362282
0.319475
0.276679
0.233896
0.191128
0.148379
0.105649
0.062926
0.021245
-0.017595
-0.056643
-0.097607
-0.138397
-0.178959
-0.219099
-0.258309
-0.295575
-0.329628
-0.358754
-0.376282
-0.378653
-0.373969
0.660766
0.660933
0.661309
0.661794
0.662426
0.663204
0.661579
0.648331
0.617434
0.576311
0.533461
0.490617
0.447778
0.404943
0.362113
0.319288
0.276472
0.233667
0.190872
0.148088
0.105317
0.062552
0.020255
-0.021799
-0.064051
-0.106100
-0.147824
-0.189241
-0.230362
-0.271104
-0.311050
-0.349303
-0.384377
-0.411283
-0.420878
-0.417409
0.617017
0.617185
0.617564
0.618052
0.618690
0.619508
0.620524
0.619278
0.606708
0.576492
0.535635
0.492865
0.450143
0.407439
0.364754
0.322089
0.279452
0.236857
0.194307
0.151803
0.109355
0.066972
0.024722
-0.018880
-0.062295
-0.103908
-0.145191
-0.186189
-0.226935
-0.267317
-0.307000
-0.345301
-0.381106
-0.412071
-0.431238
-0.437259
0.573267
0.573437
0.573819
0.574311
0.574953
0.575778
0.576829
0.578154
0.577609
0.566401
0.537543
0.497351
0.454853
0.412403
0.370008
0.327668
0.285390
0.243195
0.201101
0.159121
0.117274
0.075579
0.034047
-0.009353
-0.052057
-0.092105
-0.132106
-0.171982
-0.211504
-0.250173
-0.287301
-0.322041
-0.353338
-0.380187
-0.401648
-0.414579
0.529517
0.529688
0.530073
0.530569
0.531216
0.532048
0.533107
0.534456
0.536177
0.536574
0.527430
0.500881
0.461846
0.419778
0.377811
0.335944
0.294176
0.252525
0.211022
0.169712
0.128616
0.087745
0.047191
0.005086
-0.036685
-0.076432
-0.116094
-0.155105
-0.192728
-0.228543
-0.262258
-0.293163
-0.320450
-0.343607
-0.361906
-0.372540
0.485767
0.485940
0.486327
0.486826
0.487478
0.488316
0.489385
0.490746
0.492482
0.494692
0.496407
0.489997
0.466939
0.429765
0.388024
0.346656
0.305468
0.264434
0.223593
0.183005
0.142702
0.102694
0.063074
0.022984
-0.018984
-0.060453
-0.098967
-0.135139
-0.169394
-0.202028
-0.232670
-0.260335
-0.284507
-0.305041
-0.321013
-0.329864
0.442018
0.442192
0.442581
0.443083
0.443740
0.444584
0.445661
0.447036
0.448792
0.451033
0.453941
0.456890
0.453081
0.433932
0.399823
0.359420
0.318843
0.278481
0.238371
0.198581
0.159179
0.120227
0.081826
0.044091
0.003050
-0.039949
-0.077166
-0.109732
-0.141406
-0.172002
-0.200143
-0.224981
-0.246778
-0.265347
-0.279394
-0.286800
0.398268
0.398443
0.398835
0.399340
0.400001
0.400850
0.401936
0.403324
0.405100
0.407373
0.410324
0.413612
0.416440
0.414621
0.400677
0.371921
0.334197
0.294615
0.255388
0.216594
0.178317
0.140625
0.103590
0.067280
0.029689
-0.011730
-0.049188
-0.080505
-0.111348
-0.140115
-0.165450
-0.187879
-0.207960
-0.224902
-0.237237
-0.243472
0.354518
0.354694
0.355088
0.355596
0.356261
0.357116
0.358210
0.359610
0.361408
0.363713
0.366702
0.370001
0.372848
0.374981
0.375146
0.367099
0.346189
0.313121
0.274665
0.236967
0.199821
0.163236
0.127185
0.091610
0.056477
0.020106
-0.016778
-0.050464
-0.080338
-0.106247
-0.128821
-0.149697
-0.168452
-0.183852
-0.194661
-0.199978
0.310768
0.310946
0.311341
0.311851
0.312520
0.313381
0.314483
0.315897
0.317715
0.320054
0.323080
0.326387
0.329194
0.331284
0.333042
0.334874
0.332788
0.319717
0.293602
0.259256
0.222963
0.187194
0.151983
0.117381
0.083692
0.051682
0.018713
-0.015462
-0.045640
-0.069840
-0.090998
-0.110975
-0.128377
-0.142254
-0.151778
-0.156389
0.267019
0.267197
0.267594
0.268107
0.268779
0.269645
0.270755
0.272182
0.274021
0.276395
0.279458
0.282769
0.285535
0.287585
0.289335
0.291256
0.293741
0.295652
0.290278
0.274106
0.246748
0.212451
0.178283
0.145071
0.113193
0.082679
0.053229
0.023577
-0.005623
-0.031051
-0.052802
-0.071812
-0.087630
-0.100205
-0.108692
-0.112745
0.223269
0.223448
0.223847
0.224361
0.225038
0.225908
0.227026
0.228466
0.230327
0.232738
0.235836
0.239148
0.241871
0.243882
0.245626
0.247559
0.250082
0.253082
0.256374
0.257898
0.250910
0.233291
0.206226
0.174501
0.144012
0.114669
0.086619
0.060388
0.034754
0.009936
-0.012253
-0.031089
-0.046245
-0.057895
-0.065535
-0.069159
0.179519
0.179699
0.180100
0.180616
0.181296
0.182171
0.183297
0.184750
0.186634
0.189081
0.192213
0.195522
0.198201
0.200177
0.201914
0.203861
0.206419
0.209446
0.212741
0.216644
0.221441
0.223307
0.216640
0.200543
0.175933
0.147832
0.121206
0.096146
0.072443
0.050110
0.029705
0.011831
-0.002893
-0.013883
-0.020913
-0.024247
0.135770
0.135951
0.136352
0.136871
0.137553
0.138433
0.139567
0.141034
0.142940
0.145426
0.148591
0.151892
0.154527
0.156469
0.158202
0.160163
0.162757
0.165809
0.169136
0.173114
0.177969
0.183825
0.191013
0.194351
0.188455
0.176112
0.156630
0.132519
0.109681
0.088681
0.070276
0.054243
0.040684
0.030613
0.024353
0.021413
0.092020
0.092202
0.092605
0.093125
0.093811
0.094695
0.095837
0.097317
0.099246
0.101773
0.104969
0.108259
0.110849
0.112759
0.114490
0.116467
0.119097
0.122173
0.125533
0.129594
0.134566
0.140577
0.147815
0.155709
0.163214
0.168241
0.165772
0.158570
0.146220
0.127904
0.110574
0.095440
0.082899
0.073845
0.068331
0.065749
0.048267
0.048449
0.048852
0.049372
0.050059
0.050946
0.052093
0.053583
0.055532
0.058095
0.061310
0.064574
0.067119
0.069004
0.070737
0.072740
0.075426
0.078536
0.081933
0.086085
0.091181
0.097356
0.104756
0.112706
0.120143
0.127453
0.135601
0.145095
0.148885
0.145609
0.142362
0.135809
0.125444
0.117009
0.111869
0.109438
0.004719
0.004927
0.005395
0.005995
0.006765
0.007733
0.008957
0.010520
0.012538
0.015171
0.018492
0.021808
0.024264
0.026028
0.027658
0.029529
0.031963
0.034898
0.038339
0.042590
0.047816
0.054176
0.061737
0.069713
0.077081
0.084409
0.092765
0.102609
0.112552
0.122298
0.132673
0.138608
0.139005
0.137917
0.136874
0.136434
-0.038826
-0.038590
-0.038057
-0.037374
-0.036519
-0.035468
-0.034162
-0.032519
-0.030376
-0.027542
-0.024025
-0.020612
-0.018180
-0.016508
-0.014989
-0.013285
-0.011178
-0.008503
-0.005122
-0.000909
0.004290
0.010652
0.018243
0.026216
0.033705
0.041324
0.050037
0.060210
0.070109
0.079772
0.090239
0.100473
0.109771
0.115535
0.118249
0.119715
-0.082575
-0.082338
-0.081803
-0.081117
-0.080258
-0.079201
-0.077886
-0.076224
-0.073995
-0.070991
-0.067376
-0.063965
-0.061519
-0.059835
-0.058322
-0.056628
-0.054546
-0.051911
-0.048579
-0.044409
-0.039224
-0.032885
-0.025514
-0.017882
-0.010478
-0.002755
0.006026
0.016310
0.026892
0.037270
0.047873
0.058031
0.067027
0.072216
0.074560
0.076018
-0.115386
-0.126085
-0.125548
-0.124860
-0.123997
-0.122934
-0.121608
-0.119926
-0.117653
-0.114604
-0.110985
-0.107626
-0.105237
-0.103564
-0.102047
-0.100342
-0.098235
-0.095556
-0.092156
-0.087886
-0.082535
-0.076040
-0.068817
-0.061527
-0.054348
-0.046707
-0.038009
-0.028189
-0.017675
-0.007071
0.003345
0.013278
0.022033
0.027786
0.030866
0.032374
</DataArray>
<DataArray NumberOfComponents="1" format="ascii" type ="Float32" Name="u">
0.000000
0.001142
0.001161
0.001196
0.001244
0.001301
0.001363
0.001426
0.001486
0.001536
0.001566
0.001563
0.001504
0.001364
0.001106
0.000698
0.000110
-0.000663
-0.001586
-0.002538
-0.003250
-0.003299
-0.002463
-0.001882
-0.002399
-0.003059
-0.003560
-0.003844
-0.003894
-0.003715
-0.003329
-0.002759
-0.002034
-0.001189
-0.000266
0.000686
0.000086
0.000086
0.000088
0.000095
0.000103
0.000105
0.000092
0.000060
-0.000002
-0.000103
-0.000258
-0.000486
-0.000812
-0.001264
-0.001873
-0.002665
-0.003657
-0.004844
-0.006189
-0.007581
-0.008755
-0.009191
-0.008340
-0.006884
-0.005842
-0.005512
-0.005312
-0.005083
-0.004756
-0.004298
-0.003693
-0.002944
-0.002069
-0.001098
-0.000070
0.000974
-0.000998
-0.000998
-0.001003
-0.001018
-0.001051
-0.001109
-0.001200
-0.001336
-0.001526
-0.001785
-0.002130
-0.002582
-0.003167
-0.003910
-0.004835
-0.005960
-0.007290
-0.008815
-0.010502
-0.012265
-0.013880
-0.014814
-0.014241
-0.011660
-0.009347
-0.007908
-0.006960
-0.006229
-0.005548
-0.004816
-0.003989
-0.003057
-0.002034
-0.000947
0.000174
0.001294
-0.002072
-0.002072
-0.002085
-0.002122
-0.002195
-0.002312
-0.002484
-0.002722
-0.003038
-0.003448
-0.003971
-0.004627
-0.005439
-0.006428
-0.007612
-0.008999
-0.010588
-0.012369
-0.014317
-0.016379
-0.018398
-0.019892
-0.019796
-0.016783
-0.012887
-0.010227
-0.008547
-0.007343
-0.006305
-0.005286
-0.004226
-0.003110
-0.001946
-0.000754
0.000443
0.001623
-0.003111
-0.003111
-0.003132
-0.003191
-0.003303
-0.003477
-0.003724
-0.004055
-0.004485
-0.005028
-0.005701
-0.006524
-0.007515
-0.008689
-0.010057
-0.011625
-0.013390
-0.015343
-0.017472
-0.019751
-0.022100
-0.024167
-0.024834
-0.022202
-0.016416
-0.012592
-0.010217
-0.008504
-0.007067
-0.005733
-0.004428
-0.003129
-0.001833
-0.000550
0.000709
0.001932
-0.004090
-0.004090
-0.004120
-0.004201
-0.004348
-0.004572
-0.004884
-0.005295
-0.005817
-0.006464
-0.007251
-0.008193
-0.009304
-0.010594
-0.012071
-0.013738
-0.015594
-0.017636
-0.019861
-0.022264
-0.024826
-0.027372
-0.029045
-0.027508
-0.020321
-0.015297
-0.012079
-0.009754
-0.007864
-0.006189
-0.004633
-0.003153
-0.001736
-0.000374
0.000933
0.002187
-0.004993
-0.004993
-0.005031
-0.005130
-0.005306
-0.005571
-0.005933
-0.006404
-0.006993
-0.007712
-0.008571
-0.009582
-0.010754
-0.012094
-0.013607
-0.015296
-0.017164
-0.019213
-0.021447
-0.023874
-0.026504
-0.029300
-0.031811
-0.032017
-0.025464
-0.018557
-0.014197
-0.011157
-0.008758
-0.006715
-0.004898
-0.003241
-0.001709
-0.000279
0.001069
0.002351
-0.005803
-0.005803
-0.005847
-0.005961
-0.006159
-0.006452
-0.006850
-0.007359
-0.007989
-0.008746
-0.009639
-0.010672
-0.011853
-0.013186
-0.014673
-0.016319
-0.018129
-0.020109
-0.022270
-0.024626
-0.027198
-0.030015
-0.032942
-0.034750
-0.031130
-0.022712
-0.016801
-0.012842
-0.009846
-0.007398
-0.005308
-0.003471
-0.001826
-0.000325
0.001069
0.002388
-0.006511
-0.006511
-0.006560
-0.006683
-0.006894
-0.007205
-0.007621
-0.008150
-0.008796
-0.009563
-0.010456
-0.011476
-0.012626
-0.013907
-0.015322
-0.016875
-0.018571
-0.020422
-0.022440
-0.024645
-0.027062
-0.029736
-0.032693
-0.035439
-0.035109
-0.028025
-0.020125
-0.014965
-0.011267
-0.008352
-0.005968
-0.003938
-0.002166
-0.000577
0.000886
0.002271
-0.007114
-0.007114
-0.007165
-0.007292
-0.007509
-0.007825
-0.008247
-0.008778
-0.009420
-0.010177
-0.011047
-0.012029
-0.013122
-0.014324
-0.015636
-0.017061
-0.018607
-0.020285
-0.022111
-0.024106
-0.026299
-0.028732
-0.031478
-0.034480
-0.036305
-0.032866
-0.024601
-0.017777
-0.013181
-0.009719
-0.007003
-0.004735
-0.002802
-0.001090
0.000486
0.001985
-0.007615
-0.007615
-0.007666
-0.007793
-0.008008
-0.008321
-0.008736
-0.009257
-0.009884
-0.010617
-0.011453
-0.012386
-0.013409
-0.014518
-0.015712
-0.016992
-0.018366
-0.019846
-0.021450
-0.023201
-0.025128
-0.027269
-0.029694
-0.032489
-0.035178
-0.035048
-0.029392
-0.021797
-0.016033
-0.011569
-0.008541
-0.005959
-0.003805
-0.001905
-0.000151
0.001529
-0.008030
-0.008030
-0.008080
-0.008202
-0.008410
-0.008711
-0.009111
-0.009613
-0.010219
-0.010925
-0.011727
-0.012611
-0.013566
-0.014581
-0.015652
-0.016780
-0.017972
-0.019242
-0.020611
-0.022101
-0.023745
-0.025576
-0.027646
-0.030046
-0.032726
-0.034387
-0.032154
-0.026127
-0.019805
-0.014624
-0.010852
-0.007585
-0.005201
-0.003071
-0.001060
0.000890
-0.008389
-0.008389
-0.008436
-0.008550
-0.008744
-0.009027
-0.009405
-0.009884
-0.010467
-0.011153
-0.011932
-0.012784
-0.013684
-0.014611
-0.015559
-0.016528
-0.017529
-0.018581
-0.019709
-0.020938
-0.022299
-0.023824
-0.025549
-0.027532
-0.029828
-0.031976
-0.032060
-0.028599
-0.023181
-0.018302
-0.013837
-0.010104
-0.007233
-0.004674
-0.002255
0.000086
-0.008743
-0.008743
-0.008785
-0.008887
-0.009063
-0.009321
-0.009671
-0.010123
-0.010684
-0.011361
-0.012144
-0.012998
-0.013866
-0.014710
-0.015524
-0.016316
-0.017110
-0.017932
-0.018815
-0.019790
-0.020886
-0.022132
-0.023549
-0.025164
-0.027015
-0.028975
-0.030067
-0.028667
-0.024877
-0.020591
-0.016323
-0.012787
-0.009388
-0.006373
-0.003578
-0.000890
-0.009169
-0.009169
-0.009205
-0.009292
-0.009443
-0.009669
-0.009982
-0.010399
-0.010939
-0.011622
-0.012451
-0.013369
-0.014223
-0.014962
-0.015601
-0.016176
-0.016733
-0.017314
-0.017955
-0.018692
-0.019553
-0.020565
-0.021739
-0.023070
-0.024544
-0.026124
-0.027382
-0.027189
-0.024860
-0.021280
-0.017467
-0.014051
-0.010586
-0.007413
-0.004454
-0.001583
-0.009781
-0.009781
-0.009809
-0.009877
-0.009997
-0.010183
-0.010447
-0.010813
-0.011316
-0.012007
-0.012933
-0.014018
-0.014815
-0.015355
-0.015736
-0.016049
-0.016359
-0.016709
-0.017134
-0.017664
-0.018332
-0.019171
-0.020193
-0.021353
-0.022536
-0.023733
-0.024784
-0.025060
-0.023783
-0.021048
-0.017651
-0.014272
-0.010939
-0.007759
-0.004722
-0.001734
-0.010726
-0.010726
-0.010745
-0.010793
-0.010881
-0.011020
-0.011222
-0.011511
-0.011933
-0.012575
-0.013577
-0.014941
-0.015431
-0.015628