<VTKFile type="StructuredGrid" version="0.1" byte_order="LittleEndian">
<StructuredGrid WholeExtent="1 71 1 81 0 0">
<Piece Extent="36 71 21 41 0 0">
<PointData></PointData>
<CellData></CellData>
<Points>
<DataArray NumberOfComponents="3" format="ascii" type ="Float32" Name="mesh">
1.500000 0.875000 0.0
1.542857 0.875000 0.0
1.585714 0.875000 0.0
1.628571 0.875000 0.0
1.671429 0.875000 0.0
1.714286 0.875000 0.0
1.757143 0.875000 0.0
1.800000 0.875000 0.0
1.842857 0.875000 0.0
1.885714 0.875000 0.0
1.928571 0.875000 0.0
1.971429 0.875000 0.0
2.014286 0.875000 0.0
2.057143 0.875000 0.0
2.100000 0.875000 0.0
2.142857 0.875000 0.0
2.185714 0.875000 0.0
2.228571 0.875000 0.0
2.271429 0.875000 0.0
2.314286 0.875000 0.0
2.357143 0.875000 0.0
2.400000 0.875000 0.0
2.442857 0.875000 0.0
2.485714 0.875000 0.0
2.528571 0.875000 0.0
2.571429 0.875000 0.0
2.614286 0.875000 0.0
2.657143 0.875000 0.0
2.700000 0.875000 0.0
2.742857 0.875000 0.0
2.785714 0.875000 0.0
2.828571 0.875000 0.0
2.871429 0.875000 0.0
2.914286 0.875000 0.0
2.957143 0.875000 0.0
3.000000 0.875000 0.0
1.500000 0.918750 0.0
1.542857 0.918750 0.0
1.585714 0.918750 0.0
1.628571 0.918750 0.0
1.671429 0.918750 0.0
1.714286 0.918750 0.0
1.757143 0.918750 0.0
1.800000 0.918750 0.0
1.842857 0.918750 0.0
1.885714 0.918750 0.0
1.928571 0.918750 0.0
1.971429 0.918750 0.0
2.014286 0.918750 0.0
2.057143 0.918750 0.0
2.100000 0.918750 0.0
2.142857 0.918750 0.0
2.185714 0.918750 0.0
2.228571 0.918750 0.0
2.271429 0.918750 0.0
2.314286 0.918750 0.0
2.357143 0.918750 0.0
2.400000 0.918750 0.0
2.442857 0.918750 0.0
2.485714 0.918750 0.0
2.528571 0.918750 0.0
2.571429 0.918750 0.0
2.614286 0.918750 0.0
2.657143 0.918750 0.0
2.700000 0.918750 0.0
2.742857 0.918750 0.0
2.785714 0.918750 0.0
2.828571 0.918750 0.0
2.871429 0.918750 0.0
2.914286 0.918750 0.0
2.957143 0.918750 0.0
3.000000 0.918750 0.0
1.500000 0.962500 0.0
1.542857 0.962500 0.0
1.585714 0.962500 0.0
1.628571 0.962500 0.0
1.671429 0.962500 0.0
1.714286 0.962500 0.0
1.757143 0.962500 0.0
1.800000 0.962500 0.0
1.842857 0.962500 0.0
1.885714 0.962500 0.0
1.928571 0.962500 0.0
1.971429 0.962500 0.0
2.014286 0.962500 0.0
2.057143 0.962500 0.0
2.100000 0.962500 0.0
2.142857 0.962500 0.0
2.185714 0.962500 0.0
2.228571 0.962500 0.0
2.271429 0.962500 0.0
2.314286 0.962500 0.0
2.357143 0.962500 0.0
2.400000 0.962500 0.0
2.442857 0.962500 0.0
2.485714 0.962500 0.0
2.528571 0.962500 0.0
2.571429 0.962500 0.0
2.614286 0.962500 0.0
2.657143 0.962500 0.0
2.700000 0.962500 0.0
2.742857 0.962500 0.0
2.785714 0.962500 0.0
2.828571 0.962500 0.0
2.871429 0.962500 0.0
2.914286 0.962500 0.0
2.957143 0.962500 0.0
3.000000 0.962500 0.0
1.500000 1.006250 0.0
1.542857 1.006250 0.0
1.585714 1.006250 0.0
1.628571 1.006250 0.0
1.671429 1.006250 0.0
1.714286 1.006250 0.0
1.757143 1.006250 0.0
1.800000 1.006250 0.0
1.842857 1.006250 0.0
1.885714 1.006250 0.0
1.928571 1.006250 0.0
1.971429 1.006250 0.0
2.014286 1.006250 0.0
2.057143 1.006250 0.0
2.100000 1.006250 0.0
2.142857 1.006250 0.0
2.185714 1.006250 0.0
2.228571 1.006250 0.0
2.271429 1.006250 0.0
2.314286 1.006250 0.0
2.357143 1.006250 0.0
2.400000 1.006250 0.0
2.442857 1.006250 0.0
2.485714 1.006250 0.0
2.528571 1.006250 0.0
2.571429 1.006250 0.0
2.614286 1.006250 0.0
2.657143 1.006250 0.0
2.700000 1.006250 0.0
2.742857 1.006250 0.0
2.785714 1.006250 0.0
2.828571 1.006250 0.0
2.871429 1.006250 0.0
2.914286 1.006250 0.0
2.957143 1.006250 0.0
3.000000 1.006250 0.0
1.500000 1.050000 0.0
1.542857 1.050000 0.0
1.585714 1.050000 0.0
1.628571 1.050000 0.0
1.671429 1.050000 0.0
1.714286 1.050000 0.0
1.757143 1.050000 0.0
1.800000 1.050000 0.0
1.842857 1.050000 0.0
1.885714 1.050000 0.0
1.928571 1.050000 0.0
1.971429 1.050000 0.0
2.014286 1.050000 0.0
2.057143 1.050000 0.0
2.100000 1.050000 0.0
2.142857 1.050000 0.0
2.185714 1.050000 0.0
2.228571 1.050000 0.0
2.271429 1.050000 0.0
2.314286 1.050000 0.0
2.357143 1.050000 0.0
2.400000 1.050000 0.0
2.442857 1.050000 0.0
2.485714 1.050000 0.0
2.528571 1.050000 0.0
2.571429 1.050000 0.0
2.614286 1.050000 0.0
2.657143 1.050000 0.0
2.700000 1.050000 0.0
2.742857 1.050000 0.0
2.785714 1.050000 0.0
2.828571 1.050000 0.0
2.871429 1.050000 0.0
2.914286 1.050000 0.0
2.957143 1.050000 0.0
3.000000 1.050000 0.0
1.500000 1.093750 0.0
1.542857 1.093750 0.0
1.585714 1.093750 0.0
1.628571 1.093750 0.0
1.671429 1.093750 0.0
1.714286 1.093750 0.0
1.757143 1.093750 0.0
1.800000 1.093750 0.0
1.842857 1.093750 0.0
1.885714 1.093750 0.0
1.928571 1.093750 0.0
1.971429 1.093750 0.0
2.014286 1.093750 0.0
2.057143 1.093750 0.0
2.100000 1.093750 0.0
2.142857 1.093750 0.0
2.185714 1.093750 0.0
2.228571 1.093750 0.0
2.271429 1.093750 0.0
2.314286 1.093750 0.0
2.357143 1.093750 0.0
2.400000 1.093750 0.0
2.442857 1.093750 0.0
2.485714 1.093750 0.0
2.528571 1.093750 0.0
2.571429 1.093750 0.0
2.614286 1.093750 0.0
2.657143 1.093750 0.0
2.700000 1.093750 0.0
2.742857 1.093750 0.0
2.785714 1.093750 0.0
2.828571 1.093750 0.0
2.871429 1.093750 0.0
2.914286 1.093750 0.0
2.957143 1.093750 0.0
3.000000 1.093750 0.0
1.500000 1.137500 0.0
1.542857 1.137500 0.0
1.585714 1.137500 0.0
1.628571 1.137500 0.0
1.671429 1.137500 0.0
1.714286 1.137500 0.0
1.757143 1.137500 0.0
1.800000 1.137500 0.0
1.842857 1.137500 0.0
1.885714 1.137500 0.0
1.928571 1.137500 0.0
1.971429 1.137500 0.0
2.014286 1.137500 0.0
2.057143 1.137500 0.0
2.100000 1.137500 0.0
2.142857 1.137500 0.0
2.185714 1.137500 0.0
2.228571 1.137500 0.0
2.271429 1.137500 0.0
2.314286 1.137500 0.0
2.357143 1.137500 0.0
2.400000 1.137500 0.0
2.442857 1.137500 0.0
2.485714 1.137500 0.0
2.528571 1.137500 0.0
2.571429 1.137500 0.0
2.614286 1.137500 0.0
2.657143 1.137500 0.0
2.700000 1.137500 0.0
2.742857 1.137500 0.0
2.785714 1.137500 0.0
2.828571 1.137500 0.0
2.871429 1.137500 0.0
2.914286 1.137500 0.0
2.957143 1.137500 0.0
3.000000 1.137500 0.0
1.500000 1.181250 0.0
1.542857 1.181250 0.0
1.585714 1.181250 0.0
1.628571 1.181250 0.0
1.671429 1.181250 0.0
1.714286 1.181250 0.0
1.757143 1.181250 0.0
1.800000 1.181250 0.0
1.842857 1.181250 0.0
1.885714 1.181250 0.0
1.928571 1.181250 0.0
1.971429 1.181250 0.0
2.014286 1.181250 0.0
2.057143 1.181250 0.0
2.100000 1.181250 0.0
2.142857 1.181250 0.0
2.185714 1.181250 0.0
2.228571 1.181250 0.0
2.271429 1.181250 0.0
2.314286 1.181250 0.0
2.357143 1.181250 0.0
2.400000 1.181250 0.0
2.442857 1.181250 0.0
2.485714 1.181250 0.0
2.528571 1.181250 0.0
2.571429 1.181250 0.0
2.614286 1.181250 0.0
2.657143 1.181250 0.0
2.700000 1.181250 0.0
2.742857 1.181250 0.0
2.785714 1.181250 0.0
2.828571 1.181250 0.0
2.871429 1.181250 0.0
2.914286 1.181250 0.0
2.957143 1.181250 0.0
3.000000 1.181250 0.0
1.500000 1.225000 0.0
1.542857 1.225000 0.0
1.585714 1.225000 0.0
1.628571 1.225000 0.0
1.671429 1.225000 0.0
1.714286 1.225000 0.0
1.757143 1.225000 0.0
1.800000 1.225000 0.0
1.842857 1.225000 0.0
1.885714 1.225000 0.0
1.928571 1.225000 0.0
1.971429 1.225000 0.0
2.014286 1.225000 0.0
2.057143 1.225000 0.0
2.100000 1.225000 0.0
2.142857 1.225000 0.0
2.185714 1.225000 0.0
2.228571 1.225000 0.0
2.271429 1.225000 0.0
2.314286 1.225000 0.0
2.357143 1.225000 0.0
2.400000 1.225000 0.0
2.442857 1.225000 0.0
2.485714 1.225000 0.0
2.528571 1.225000 0.0
2.571429 1.225000 0.0
2.614286 1.225000 0.0
2.657143 1.225000 0.0
2.700000 1.225000 0.0
2.742857 1.225000 0.0
2.785714 1.225000 0.0
2.828571 1.225000 0.0
2.871429 1.225000 0.0
2.914286 1.225000 0.0
2.957143 1.225000 0.0
3.000000 1.225000 0.0
1.500000 1.268750 0.0
1.542857 1.268750 0.0
1.585714 1.268750 0.0
1.628571 1.268750 0.0
1.671429 1.268750 0.0
1.714286 1.268750 0.0
1.757143 1.268750 0.0
1.800000 1.268750 0.0
1.842857 1.268750 0.0
1.885714 1.268750 0.0
1.928571 1.268750 0.0
1.971429 1.268750 0.0
2.014286 1.268750 0.0
2.057143 1.268750 0.0
2.100000 1.268750 0.0
2.142857 1.268750 0.0
2.185714 1.268750 0.0
2.228571 1.268750 0.0
2.271429 1.268750 0.0
2.314286 1.268750 0.0
2.357143 1.268750 0.0
2.400000 1.268750 0.0
2.442857 1.268750 0.0
2.485714 1.268750 0.0
2.528571 1.268750 0.0
2.571429 1.268750 0.0
2.614286 1.268750 0.0
2.657143 1.268750 0.0
2.700000 1.268750 0.0
2.742857 1.268750 0.0
2.785714 1.268750 0.0
2.828571 1.268750 0.0
2.871429 1.268750 0.0
2.914286 1.268750 0.0
2.957143 1.268750 0.0
3.000000 1.268750 0.0
1.500000 1.312500 0.0
1.542857 1.312500 0.0
1.585714 1.312500 0.0
1.628571 1.312500 0.0
1.671429 1.312500 0.0
1.714286 1.312500 0.0
1.757143 1.312500 0.0
1.800000 1.312500 0.0
1.842857 1.312500 0.0
1.885714 1.312500 0.0
1.928571 1.312500 0.0
1.971429 1.312500 0.0
2.014286 1.312500 0.0
2.057143 1.312500 0.0
2.100000 1.312500 0.0
2.142857 1.312500 0.0
2.185714 1.312500 0.0
2.228571 1.312500 0.0
2.271429 1.312500 0.0
2.314286 1.312500 0.0
2.357143 1.312500 0.0
2.400000 1.312500 0.0
2.442857 1.312500 0.0
2.485714 1.312500 0.0
2.528571 1.312500 0.0
2.571429 1.312500 0.0
2.614286 1.312500 0.0
2.657143 1.312500 0.0
2.700000 1.312500 0.0
2.742857 1.312500 0.0
2.785714 1.312500 0.0
2.828571 1.312500 0.0
2.871429 1.312500 0.0
2.914286 1.312500 0.0
2.957143 1.312500 0.0
3.000000 1.312500 0.0
1.500000 1.356250 0.0
1.542857 1.356250 0.0
1.585714 1.356250 0.0
1.628571 1.356250 0.0
1.671429 1.356250 0.0
1.714286 1.356250 0.0
1.757143 1.356250 0.0
1.800000 1.356250 0.0
1.842857 1.356250 0.0
1.885714 1.356250 0.0
1.928571 1.356250 0.0
1.971429 1.356250 0.0
2.014286 1.356250 0.0
2.057143 1.356250 0.0
2.100000 1.356250 0.0
2.142857 1.356250 0.0
2.185714 1.356250 0.0
2.228571 1.356250 0.0
2.271429 1.356250 0.0
2.314286 1.356250 0.0
2.357143 1.356250 0.0
2.400000 1.356250 0.0
2.442857 1.356250 0.0
2.485714 1.356250 0.0
2.528571 1.356250 0.0
2.571429 1.356250 0.0
2.614286 1.356250 0.0
2.657143 1.356250 0.0
2.700000 1.356250 0.0
2.742857 1.356250 0.0
2.785714 1.356250 0.0
2.828571 1.356250 0.0
2.871429 1.356250 0.0
2.914286 1.356250 0.0
2.957143 1.356250 0.0
3.000000 1.356250 0.0
1.500000 1.400000 0.0
1.542857 1.400000 0.0
1.585714 1.400000 0.0
1.628571 1.400000 0.0
1.671429 1.400000 0.0
1.714286 1.400000 0.0
1.757143 1.400000 0.0
1.800000 1.400000 0.0
1.842857 1.400000 0.0
1.885714 1.400000 0.0
1.928571 1.400000 0.0
1.971429 1.400000 0.0
2.014286 1.400000 0.0
2.057143 1.400000 0.0
2.100000 1.400000 0.0
2.142857 1.400000 0.0
2.185714 1.400000 0.0
2.228571 1.400000 0.0
2.271429 1.400000 0.0
2.314286 1.400000 0.0
2.357143 1.400000 0.0
2.400000 1.400000 0.0
2.442857 1.400000 0.0
2.485714 1.400000 0.0
2.528571 1.400000 0.0
2.571429 1.400000 0.0
2.614286 1.400000 0.0
2.657143 1.400000 0.0
2.700000 1.400000 0.0
2.742857 1.400000 0.0
2.785714 1.400000 0.0
2.828571 1.400000 0.0
2.871429 1.400000 0.0
2.914286 1.400000 0.0
2.957143 1.400000 0.0
3.000000 1.400000 0.0
1.500000 1.443750 0.0
1.542857 1.443750 0.0
1.585714 1.443750 0.0
1.628571 1.443750 0.0
1.671429 1.443750 0.0
1.714286 1.443750 0.0
1.757143 1.443750 0.0
1.800000 1.443750 0.0
1.842857 1.443750 0.0
1.885714 1.443750 0.0
1.928571 1.443750 0.0
1.971429 1.443750 0.0
2.014286 1.443750 0.0
2.057143 1.443750 0.0
2.100000 1.443750 0.0
2.142857 1.443750 0.0
2.185714 1.443750 0.0
2.228571 1.443750 0.0
2.271429 1.443750 0.0
2.314286 1.443750 0.0
2.357143 1.443750 0.0
2.400000 1.443750 0.0
2.442857 1.443750 0.0
2.485714 1.443750 0.0
2.528571 1.443750 0.0
2.571429 1.443750 0.0
2.614286 1.443750 0.0
2.657143 1.443750 0.0
2.700000 1.443750 0.0
2.742857 1.443750 0.0
2.785714 1.443750 0.0
2.828571 1.443750 0.0
2.871429 1.443750 0.0
2.914286 1.443750 0.0
2.957143 1.443750 0.0
3.000000 1.443750 0.0
1.500000 1.487500 0.0
1.542857 1.487500 0.0
1.585714 1.487500 0.0
1.628571 1.487500 0.0
1.671429 1.487500 0.0
1.714286 1.487500 0.0
1.757143 1.487500 0.0
1.800000 1.487500 0.0
1.842857 1.487500 0.0
1.885714 1.487500 0.0
1.928571 1.487500 0.0
1.971429 1.487500 0.0
2.014286 1.487500 0.0
2.057143 1.487500 0.0
2.100000 1.487500 0.0
2.142857 1.487500 0.0
2.185714 1.487500 0.0
2.228571 1.487500 0.0
2.271429 1.487500 0.0
2.314286 1.487500 0.0
2.357143 1.487500 0.0
2.400000 1.487500 0.0
2.442857 1.487500 0.0
2.485714 1.487500 0.0
2.528571 1.487500 0.0
2.571429 1.487500 0.0
2.614286 1.487500 0.0
2.657143 1.487500 0.0
2.700000 1.487500 0.0
2.742857 1.487500 0.0
2.785714 1.487500 0.0
2.828571 1.487500 0.0
2.871429 1.487500 0.0
2.914286 1.487500 0.0
2.957143 1.487500 0.0
3.000000 1.487500 0.0
1.500000 1.531250 0.0
1.542857 1.531250 0.0
1.585714 1.531250 0.0
1.628571 1.531250 0.0
1.671429 1.531250 0.0
1.714286 1.531250 0.0
1.757143 1.531250 0.0
1.800000 1.531250 0.0
1.842857 1.531250 0.0
1.885714 1.531250 0.0
1.928571 1.531250 0.0
1.971429 1.531250 0.0
2.014286 1.531250 0.0
2.057143 1.531250 0.0
2.100000 1.531250 0.0
2.142857 1.531250 0.0
2.185714 1.531250 0.0
2.228571 1.531250 0.0
2.271429 1.531250 0.0
2.314286 1.531250 0.0
2.357143 1.531250 0.0
2.400000 1.531250 0.0
2.442857 1.531250 0.0
2.485714 1.531250 0.0
2.528571 1.531250 0.0
2.571429 1.531250 0.0
2.614286 1.531250 0.0
2.657143 1.531250 0.0
2.700000 1.531250 0.0
2.742857 1.531250 0.0
2.785714 1.531250 0.0
2.828571 1.531250 0.0
2.871429 1.531250 0.0
2.914286 1.531250 0.0
2.957143 1.531250 0.0
3.000000 1.531250 0.0
1.500000 1.575000 0.0
1.542857 1.575000 0.0
1.585714 1.575000 0.0
1.628571 1.575000 0.0
1.671429 1.575000 0.0
1.714286 1.575000 0.0
1.757143 1.575000 0.0
1.800000 1.575000 0.0
1.842857 1.575000 0.0
1.885714 1.575000 0.0
1.928571 1.575000 0.0
1.971429 1.575000 0.0
2.014286 1.575000 0.0
2.057143 1.575000 0.0
2.100000 1.575000 0.0
2.142857 1.575000 0.0
2.185714 1.575000 0.0
2.228571 1.575000 0.0
2.271429 1.575000 0.0
2.314286 1.575000 0.0
2.357143 1.575000 0.0
2.400000 1.575000 0.0
2.442857 1.575000 0.0
2.485714 1.575000 0.0
2.528571 1.575000 0.0
2.571429 1.575000 0.0
2.614286 1.575000 0.0
2.657143 1.575000 0.0
2.700000 1.575000 0.0
2.742857 1.575000 0.0
2.785714 1.575000 0.0
2.828571 1.575000 0.0
2.871429 1.575000 0.0
2.914286 1.575000 0.0
2.957143 1.575000 0.0
3.000000 1.575000 0.0
1.500000 1.618750 0.0
1.542857 1.618750 0.0
1.585714 1.618750 0.0
1.628571 1.618750 0.0
1.671429 1.618750 0.0
1.714286 1.618750 0.0
1.757143 1.618750 0.0
1.800000 1.618750 0.0
1.842857 1.618750 0.0
1.885714 1.618750 0.0
1.928571 1.618750 0.0
1.971429 1.618750 0.0
2.014286 1.618750 0.0
2.057143 1.618750 0.0
2.100000 1.618750 0.0
2.142857 1.618750 0.0
2.185714 1.618750 0.0
2.228571 1.618750 0.0
2.271429 1.618750 0.0
2.314286 1.618750 0.0
2.357143 1.618750 0.0
2.400000 1.618750 0.0
2.442857 1.618750 0.0
2.485714 1.618750 0.0
2.528571 1.618750 0.0
2.571429 1.618750 0.0
2.614286 1.618750 0.0
2.657143 1.618750 0.0
2.700000 1.618750 0.0
2.742857 1.618750 0.0
2.785714 1.618750 0.0
2.828571 1.618750 0.0
2.871429 1.618750 0.0
2.914286 1.618750 0.0
2.957143 1.618750 0.0
3.000000 1.618750 0.0
1.500000 1.662500 0.0
1.542857 1.662500 0.0
1.585714 1.662500 0.0
1.628571 1.662500 0.0
1.671429 1.662500 0.0
1.714286 1.662500 0.0
1.757143 1.662500 0.0
1.800000 1.662500 0.0
1.842857 1.662500 0.0
1.885714 1.662500 0.0
1.928571 1.662500 0.0
1.971429 1.662500 0.0
2.014286 1.662500 0.0
2.057143 1.662500 0.0
2.100000 1.662500 0.0
2.142857 1.662500 0.0
2.185714 1.662500 0.0
2.228571 1.662500 0.0
2.271429 1.662500 0.0
2.314286 1.662500 0.0
2.357143 1.662500 0.0
2.400000 1.662500 0.0
2.442857 1.662500 0.0
2.485714 1.662500 0.0
2.528571 1.662500 0.0
2.571429 1.662500 0.0
2.614286 1.662500 0.0
2.657143 1.662500 0.0
2.700000 1.662500 0.0
2.742857 1.662500 0.0
2.785714 1.662500 0.0
2.828571 1.662500 0.0
2.871429 1.662500 0.0
2.914286 1.662500 0.0
2.957143 1.662500 0.0
3.000000 1.662500 0.0
1.500000 1.706250 0.0
1.542857 1.706250 0.0
1.585714 1.706250 0.0
1.628571 1.706250 0.0
1.671429 1.706250 0.0
1.714286 1.706250 0.0
1.757143 1.706250 0.0
1.800000 1.706250 0.0
1.842857 1.706250 0.0
1.885714 1.706250 0.0
1.928571 1.706250 0.0
1.971429 1.706250 0.0
2.014286 1.706250 0.0
2.057143 1.706250 0.0
2.100000 1.706250 0.0
2.142857 1.706250 0.0
2.185714 1.706250 0.0
2.228571 1.706250 0.0
2.271429 1.706250 0.0
2.314286 1.706250 0.0
2.357143 1.706250 0.0
2.400000 1.706250 0.0
2.442857 1.706250 0.0
2.485714 1.706250 0.0
2.528571 1.706250 0.0
2.571429 1.706250 0.0
2.614286 1.706250 0.0
2.657143 1.706250 0.0
2.700000 1.706250 0.0
2.742857 1.706250 0.0
2.785714 1.706250 0.0
2.828571 1.706250 0.0
2.871429 1.706250 0.0
2.914286 1.706250 0.0
2.957143 1.706250 0.0
3.000000 1.706250 0.0
1.500000 1.750000 0.0
1.542857 1.750000 0.0
1.585714 1.750000 0.0
1.628571 1.750000 0.0
1.671429 1.750000 0.0
1.714286 1.750000 0.0
1.757143 1.750000 0.0
1.800000 1.750000 0.0
1.842857 1.750000 0.0
1.885714 1.750000 0.0
1.928571 1.750000 0.0
1.971429 1.750000 0.0
2.014286 1.750000 0.0
2.057143 1.750000 0.0
2.100000 1.750000 0.0
2.142857 1.750000 0.0
2.185714 1.750000 0.0
2.228571 1.750000 0.0
2.271429 1.750000 0.0
2.314286 1.750000 0.0
2.357143 1.750000 0.0
2.400000 1.750000 0.0
2.442857 1.750000 0.0
2.485714 1.750000 0.0
2.528571 1.750000 0.0
2.571429 1.750000 0.0
2.614286 1.750000 0.0
2.657143 1.750000 0.0
2.700000 1.750000 0.0
2.742857 1.750000 0.0
2.785714 1.750000 0.0
2.828571 1.750000 0.0
2.871429 1.750000 0.0
2.914286 1.750000 0.0
2.957143 1.750000 0.0
3.000000 1.750000 0.0
</DataArray></Points>
<PointData>
<DataArray NumberOfComponents="1" format="ascii" type ="Float32" Name="phi">
1.314420
1.305818
1.288057
1.271205
1.255393
1.240749
1.227278
1.214912
1.203642
1.193560
1.184808
1.177531
1.171864
1.167877
1.165640
1.165564
1.167607
1.171356
1.176804
1.183915
1.192606
1.202827
1.214472
1.227378
1.241464
1.256744
1.273349
1.291518
1.311158
1.331854
1.353288
1.375267
1.397742
1.420839
1.444955
1.448335
1.275012
1.266296
1.247965
1.230671
1.214564
1.199621
1.185753
1.172937
1.161241
1.150798
1.141760
1.134249
1.128380
1.124232
1.121894
1.121818
1.123959
1.127860
1.133474
1.140793
1.149772
1.160389
1.172582
1.186163
1.200964
1.216835
1.233720
1.251879
1.271616
1.292882
1.315264
1.338325
1.361831
1.385725
1.410092
1.422409
1.235855
1.226884
1.208091
1.190474
1.174025
1.158626
1.144254
1.130962
1.118866
1.108117
1.098815
1.091029
1.084915
1.080587
1.078147
1.078072
1.080332
1.084436
1.090278
1.097812
1.107012
1.117915
1.130553
1.144767
1.160362
1.177081
1.194722
1.213267
1.232945
1.254175
1.277031
1.301073
1.325741
1.350750
1.376052
1.388779
1.196907
1.187738
1.168608
1.150605
1.133641
1.117681
1.102779
1.089058
1.076649
1.065615
1.055981
1.047860
1.041471
1.036950
1.034402
1.034324
1.036704
1.041038
1.047195
1.055080
1.064594
1.075725
1.088589
1.103213
1.119497
1.137138
1.155764
1.175199
1.195403
1.216600
1.239279
1.263698
1.289353
1.315571
1.342068
1.355363
1.158280
1.149072
1.129500
1.110929
1.093342
1.076797
1.061438
1.047393
1.034672
1.023249
1.013198
1.004724
0.998064
0.993339
0.990664
0.990573
0.993060
0.997611
1.004109
1.012464
1.022503
1.034071
1.047173
1.061925
1.078540
1.096895
1.116542
1.137096
1.158322
1.180187
1.202889
1.227015
1.252930
1.280141
1.307881
1.321805
1.120008
1.110853
1.090638
1.071383
1.053150
1.036109
1.020403
1.005999
0.992824
0.980916
0.970440
0.961639
0.954715
0.949761
0.946932
0.946823
0.949408
0.954144
0.960954
0.969785
0.980457
0.992727
1.006424
1.021488
1.038131
1.056670
1.077043
1.098707
1.121146
1.144150
1.167665
1.191862
1.217383
1.244786
1.273473
1.287968
1.082003
1.072923
1.051963
1.031993
1.013209
0.995784
0.979664
0.964733
0.951004
0.938604
0.927745
0.918640
0.911423
0.906203
0.903204
0.903090
0.905796
0.910699
0.917759
0.926990
0.938259
0.951317
0.965905
0.981773
0.998818
1.017315
1.037743
1.060064
1.083665
1.107980
1.132737
1.157860
1.183517
1.210466
1.239188
1.253961
1.044365
1.035233
1.013498
0.992908
0.973690
0.955796
0.939074
0.923515
0.909222
0.896388
0.885195
0.875745
0.868167
0.862656
0.859480
0.859377
0.862266
0.867410
0.874703
0.884194
0.895891
0.909651
0.925210
0.942160
0.960187
0.979223
0.999572
1.021805
1.046009
1.071537
1.097670
1.124102
1.150790
1.177913
1.206119
1.220609
1.007217
0.997804
0.975393
0.954313
0.934582
0.916015
0.898577
0.882375
0.867605
0.854410
0.842823
0.832921
0.824933
0.819119
0.815762
0.815668
0.818782
0.824300
0.832000
0.841774
0.853680
0.867853
0.884205
0.902275
0.921550
0.941741
0.962774
0.984945
1.008946
1.035019
1.062389
1.090230
1.118284
1.146496
1.175014
1.189386
0.970493
0.960783
0.937860
0.916235
0.895770
0.876391
0.858218
0.841484
0.826320
0.812679
0.800558
0.790140
0.781729
0.775600
0.772051
0.771949
0.775277
0.781236
0.789558
0.799924
0.812183
0.826486
0.843154
0.862072
0.882614
0.904201
0.926530
0.949523
0.973490
0.999253
1.027120
1.056233
1.085720
1.115328
1.145035
1.159917
0.934258
0.924494
0.900984
0.878571
0.857200
0.836974
0.818182
0.801002
0.785326
0.771071
0.758347
0.747415
0.738583
0.732118
0.728350
0.728223
0.731732
0.738086
0.747083
0.758317
0.771404
0.786176
0.802880
0.821980
0.843395
0.866367
0.890196
0.914601
0.939507
0.965260
0.992755
1.022347
1.053116
1.084169
1.115258
1.130796
0.898648
0.889059
0.864668
0.841249
0.818909
0.797944
0.778627
0.760860
0.744478
0.729533
0.716216
0.704802
0.695546
0.688697
0.684663
0.684508
0.688182
0.694838
0.704419
0.716576
0.730789
0.746655
0.763959
0.783016
0.804505
0.828341
0.853626
0.879617
0.906018
0.932802
0.960330
0.989522
1.020753
1.053069
1.085498
1.101685
0.863590
0.854274
0.828799
0.804293
0.781064
0.759474
0.739502
0.720927
0.703745
0.688113
0.674262
0.662379
0.652637
0.645339
0.640994
0.640847
0.644762
0.651668
0.661645
0.674558
0.689929
0.707179
0.725802
0.745618
0.767042
0.790834
0.816984
0.844500
0.872542
0.900871
0.929503
0.958790
0.989686
1.022419
1.055755
1.072369
0.829130
0.819979
0.793379
0.767857
0.743882
0.721577
0.700707
0.681192
0.663201
0.646967
0.632605
0.620160
0.609832
0.602032
0.597349
0.597239
0.601570
0.608913
0.619149
0.632465
0.648770
0.667417
0.687637
0.708967
0.731270
0.755012
0.781061
0.809428
0.839045
0.869055
0.899263
0.929700
0.960779
0.993236
1.026113
1.042323
0.795418
0.786158
0.758538
0.732210
0.707479
0.684194
0.662234
0.641758
0.623063
0.606247
0.591237
0.578093
0.567117
0.558779
0.553729
0.553632
0.558487
0.566632
0.577478
0.591021
0.607691
0.627386
0.649220
0.672316
0.696261
0.721015
0.747069
0.775295
0.805755
0.837367
0.869253
0.901249
0.933404
0.965714
0.996179
1.010464
0.762394
0.752909
0.724558
0.697535
0.671820
0.647316
0.624199
0.602858
0.583475
0.565895
0.550069
0.536165
0.524514
0.515600
0.510135
0.509998
0.515334
0.524453
0.536506
0.550859
0.567700
0.587677
0.610645
0.635512
0.661344
0.687842
0.715024
0.743330
0.773642
0.806064
0.839504
0.873107
0.906569
0.938738
0.964382
0.974512
0.730068
0.720517
0.691602
0.663737
0.636845
0.611059
0.586854
0.564651
0.544355
0.525806
0.509095
0.494422
0.482081
0.472534
0.466571
0.466339
0.472077
0.482094
0.495571
0.511503
0.529355
0.549492
0.572667
0.598715
0.626441
0.654912
0.683889
0.713389
0.743835
0.776134
0.810354
0.845322
0.879771
0.909997
0.928399
0.933533
0.698637
0.689167
0.659519
0.630648
0.602583
0.575628
0.550386
0.527104
0.505630
0.486003
0.468398
0.452965
0.439893
0.429619
0.423045
0.422703
0.428819
0.439580
0.454397
0.472158
0.491879
0.513214
0.536610
0.562836
0.591774
0.622202
0.653163
0.684446
0.716090
0.748620
0.782837
0.818223
0.852077
0.876908
0.887883
0.890111
0.668082
0.658694
0.628138
0.598246
0.569144
0.541204
0.514839
0.490193
0.467377
0.446642
0.428143
0.411883
0.397975
0.386860
0.379573
0.379226
0.385863
0.397203
0.413103
0.432651
0.454530
0.477931
0.502708
0.529266
0.558388
0.589995
0.622864
0.656070
0.689441
0.723168
0.757593
0.792153
0.821862
0.838970
0.844959
0.846414
0.638190
0.628930
0.597456
0.566624
0.536688
0.507850
0.480249
0.454095
0.429873
0.407980
0.388444
0.371184
0.356311
0.344263
0.336173
0.335937
0.343571
0.355724
0.372283
0.393161
0.417194
0.442992
0.469964
0.498028
0.527574
0.559372
0.593346
0.628333
0.663514
0.698783
0.733872
0.765915
0.787635
0.797413
0.801389
0.802688
0.608758
0.599800
0.567585
0.535954
0.505242
0.475471
0.446664
0.419106
0.393436
0.370148
0.349295
0.330854
0.314930
0.301878
0.292867
0.292694
0.301768
0.315579
0.333118
0.354676
0.380204
0.408386
0.437840
0.468113
0.499191
0.531476
0.565687
0.601721
0.638493
0.675146
0.709942
0.735905
0.748611
0.754200
0.757722
0.769892
</DataArray>
<DataArray NumberOfComponents="1" format="ascii" type ="Float32" Name="u">
0.000252
-0.000387
-0.001036
-0.001730
-0.002503
-0.003383
-0.004388
-0.005529
-0.006808
-0.008216
-0.009734
-0.011329
-0.012955
-0.014553
-0.016050
-0.017367
-0.018431
-0.019185
-0.019610
-0.019730
-0.019610
-0.019336
-0.018992
-0.018645
-0.018332
-0.018074
-0.017873
-0.017724
-0.017619
-0.017550
-0.017507
-0.017483
-0.017472
-0.017468
-0.017467
-0.017467
0.000301
-0.000416
-0.001147
-0.001931
-0.002804
-0.003794
-0.004920
-0.006192
-0.007606
-0.009150
-0.010795
-0.012501
-0.014213
-0.015858
-0.017355
-0.018618
-0.019572
-0.020170
-0.020411
-0.020343
-0.020055
-0.019647
-0.019208
-0.018798
-0.018448
-0.018168
-0.017954
-0.017797
-0.017688
-0.017615
-0.017570
-0.017545
-0.017533
-0.017528
-0.017526
-0.017526
0.000329
-0.000485
-0.001317
-0.002210
-0.003201
-0.004319
-0.005581
-0.006994
-0.008551
-0.010230
-0.011998
-0.013804
-0.015582
-0.017249
-0.018714
-0.019887
-0.020695
-0.021107
-0.021143
-0.020880
-0.020429
-0.019900
-0.019380
-0.018919
-0.018540
-0.018242
-0.018018
-0.017855
-0.017741
-0.017665
-0.017618
-0.017592
-0.017580
-0.017575
-0.017574
-0.017574
0.000327
-0.000605
-0.001561
-0.002582
-0.003709
-0.004969
-0.006379
-0.007941
-0.009641
-0.011454
-0.013334
-0.015223
-0.017043
-0.018702
-0.020101
-0.021148
-0.021779
-0.021979
-0.021799
-0.021343
-0.020739
-0.020104
-0.019515
-0.019015
-0.018612
-0.018300
-0.018067
-0.017897
-0.017779
-0.017699
-0.017650
-0.017622
-0.017609
-0.017604
-0.017603
-0.017603
0.000285
-0.000788
-0.001887
-0.003057
-0.004336
-0.005752
-0.007318
-0.009030
-0.010873
-0.012809
-0.014788
-0.016739
-0.018576
-0.020196
-0.021496
-0.022384
-0.022809
-0.022781
-0.022379
-0.021737
-0.020995
-0.020268
-0.019624
-0.019091
-0.018668
-0.018344
-0.018101
-0.017924
-0.017800
-0.017716
-0.017663
-0.017634
-0.017619
-0.017614
-0.017613
-0.017613
0.000200
-0.001038
-0.002303
-0.003640
-0.005086
-0.006667
-0.008393
-0.010257
-0.012235
-0.014284
-0.016344
-0.018336
-0.020162
-0.021713
-0.022882
-0.023582
-0.023778
-0.023511
-0.022891
-0.022075
-0.021211
-0.020407
-0.019716
-0.019154
-0.018712
-0.018375
-0.018121
-0.017936
-0.017804
-0.017715
-0.017658
-0.017625
-0.017610
-0.017604
-0.017603
-0.017603
0.000075
-0.001353
-0.002806
-0.004329
-0.005956
-0.007710
-0.009599
-0.011610
-0.013715
-0.015864
-0.017988
-0.019998
-0.021788
-0.023241
-0.024249
-0.024735
-0.024687
-0.024176
-0.023346
-0.022372
-0.021401
-0.020530
-0.019797
-0.019209
-0.018748
-0.018395
-0.018128
-0.017932
-0.017791
-0.017695
-0.017633
-0.017597
-0.017579
-0.017572
-0.017571
-0.017571
-0.000078
-0.001721
-0.003386
-0.005112
-0.006933
-0.008868
-0.010921
-0.013078
-0.015302
-0.017539
-0.019709
-0.021717
-0.023445
-0.024773
-0.025593
-0.025843
-0.025539
-0.024788
-0.023762
-0.022645
-0.021580
-0.020649
-0.019877
-0.019259
-0.018776
-0.018404
-0.018121
-0.017911
-0.017760
-0.017655
-0.017587
-0.017547
-0.017527
-0.017519
-0.017517
-0.017517
-0.000235
-0.002120
-0.004021
-0.005971
-0.007999
-0.010124
-0.012346
-0.014647
-0.016986
-0.019300
-0.021503
-0.023487
-0.025129
-0.026304
-0.026911
-0.026908
-0.026345
-0.025363
-0.024157
-0.022913
-0.021763
-0.020773
-0.019960
-0.019310
-0.018799
-0.018403
-0.018101
-0.017874
-0.017709
-0.017593
-0.017518
-0.017473
-0.017451
-0.017442
-0.017440
-0.017440
-0.000361
-0.002516
-0.004679
-0.006875
-0.009129
-0.011457
-0.013856
-0.016305
-0.018757
-0.021142
-0.023364
-0.025305
-0.026835
-0.027830
-0.028201
-0.027936
-0.027118
-0.025921
-0.024552
-0.023192
-0.021961
-0.020912
-0.020052
-0.019362
-0.018818
-0.018394
-0.018067
-0.017819
-0.017638
-0.017510
-0.017426
-0.017375
-0.017349
-0.017339
-0.017336
-0.017336
-0.000416
-0.002868
-0.005319
-0.007787
-0.010291
-0.012842
-0.015435
-0.018042
-0.020611
-0.023062
-0.025288
-0.027163
-0.028553
-0.029340
-0.029460
-0.028931
-0.027875
-0.026484
-0.024969
-0.023502
-0.022189
-0.021074
-0.020158
-0.019421
-0.018836
-0.018376
-0.018019
-0.017747
-0.017545
-0.017403
-0.017308
-0.017250
-0.017220
-0.017208
-0.017205
-0.017205
-0.000356
-0.003127
-0.005895
-0.008666
-0.011450
-0.014251
-0.017059
-0.019839
-0.022531
-0.025043
-0.027257
-0.029039
-0.030260
-0.030818
-0.030681
-0.029904
-0.028635
-0.027077
-0.025432
-0.023861
-0.022459
-0.021267
-0.020284
-0.019489
-0.018854
-0.018351
-0.017958
-0.017656
-0.017431
-0.017270
-0.017162
-0.017096
-0.017061
-0.017046
-0.017043
-0.017043
-0.000142
-0.003251
-0.006361
-0.009467
-0.012565
-0.015650
-0.018701
-0.021673
-0.024492
-0.027053
-0.029229
-0.030888
-0.031913
-0.032235
-0.031855
-0.030864
-0.029422
-0.027725
-0.025963
-0.024284
-0.022783
-0.021501
-0.020438
-0.019573
-0.018876
-0.018322
-0.017885
-0.017547
-0.017293
-0.017110
-0.016986
-0.016909
-0.016868
-0.016851
-0.016846
-0.016846
0.000251
-0.003204
-0.006678
-0.010149
-0.013598
-0.017001
-0.020322
-0.023498
-0.026437
-0.029024
-0.031129
-0.032633
-0.033449
-0.033547
-0.032967
-0.031818
-0.030255
-0.028452
-0.026582
-0.024788
-0.023173
-0.021785
-0.020626
-0.019677
-0.018909
-0.018292
-0.017802
-0.017420
-0.017131
-0.016921
-0.016777
-0.016687
-0.016639
-0.016618
-0.016612
-0.016612
0.000820
-0.002978
-0.006827
-0.010687
-0.014515
-0.018263
-0.021868
-0.025241
-0.028275
-0.030847
-0.032839
-0.034164
-0.034779
-0.034697
-0.033988
-0.032760
-0.031141
-0.029271
-0.027303
-0.025388
-0.023643
-0.022130
-0.020860
-0.019812
-0.018957
-0.018266
-0.017712
-0.017278
-0.016945
-0.016702
-0.016533
-0.016427
-0.016368
-0.016343
-0.016335
-0.016335
0.001525
-0.002599
-0.006820
-0.011076
-0.015294
-0.019389
-0.023261
-0.026793
-0.029864
-0.032362
-0.034202
-0.035343
-0.035793
-0.035608
-0.034866
-0.033656
-0.032060
-0.030172
-0.028128
-0.026090
-0.024203
-0.022549
-0.021149
-0.019985
-0.019029
-0.018248
-0.017619
-0.017120
-0.016735
-0.016450
-0.016251
-0.016124
-0.016053
-0.016021
-0.016012
-0.016012
0.002278
-0.002144
-0.006715
-0.011346
-0.015926
-0.020322
-0.024392
-0.027998
-0.031022
-0.033382
-0.035043
-0.036022
-0.036376
-0.036181
-0.035515
-0.034426
-0.032940
-0.031101
-0.029023
-0.026882
-0.024854
-0.023049
-0.021503
-0.020206
-0.019131
-0.018245
-0.017525
-0.016948
-0.016500
-0.016165
-0.015927
-0.015774
-0.015686