<VTKFile type="StructuredGrid" version="0.1" byte_order="LittleEndian">
<StructuredGrid WholeExtent="1 71 1 81 0 0">
<Piece Extent="1 36 21 41 0 0">
<PointData></PointData>
<CellData></CellData>
<Points>
<DataArray NumberOfComponents="3" format="ascii" type ="Float32" Name="mesh">
0.000000 0.875000 0.0
0.042857 0.875000 0.0
0.085714 0.875000 0.0
0.128571 0.875000 0.0
0.171429 0.875000 0.0
0.214286 0.875000 0.0
0.257143 0.875000 0.0
0.300000 0.875000 0.0
0.342857 0.875000 0.0
0.385714 0.875000 0.0
0.428571 0.875000 0.0
0.471429 0.875000 0.0
0.514286 0.875000 0.0
0.557143 0.875000 0.0
0.600000 0.875000 0.0
0.642857 0.875000 0.0
0.685714 0.875000 0.0
0.728571 0.875000 0.0
0.771429 0.875000 0.0
0.814286 0.875000 0.0
0.857143 0.875000 0.0
0.900000 0.875000 0.0
0.942857 0.875000 0.0
0.985714 0.875000 0.0
1.028571 0.875000 0.0
1.071429 0.875000 0.0
1.114286 0.875000 0.0
1.157143 0.875000 0.0
1.200000 0.875000 0.0
1.242857 0.875000 0.0
1.285714 0.875000 0.0
1.328571 0.875000 0.0
1.371429 0.875000 0.0
1.414286 0.875000 0.0
1.457143 0.875000 0.0
1.500000 0.875000 0.0
0.000000 0.918750 0.0
0.042857 0.918750 0.0
0.085714 0.918750 0.0
0.128571 0.918750 0.0
0.171429 0.918750 0.0
0.214286 0.918750 0.0
0.257143 0.918750 0.0
0.300000 0.918750 0.0
0.342857 0.918750 0.0
0.385714 0.918750 0.0
0.428571 0.918750 0.0
0.471429 0.918750 0.0
0.514286 0.918750 0.0
0.557143 0.918750 0.0
0.600000 0.918750 0.0
0.642857 0.918750 0.0
0.685714 0.918750 0.0
0.728571 0.918750 0.0
0.771429 0.918750 0.0
0.814286 0.918750 0.0
0.857143 0.918750 0.0
0.900000 0.918750 0.0
0.942857 0.918750 0.0
0.985714 0.918750 0.0
1.028571 0.918750 0.0
1.071429 0.918750 0.0
1.114286 0.918750 0.0
1.157143 0.918750 0.0
1.200000 0.918750 0.0
1.242857 0.918750 0.0
1.285714 0.918750 0.0
1.328571 0.918750 0.0
1.371429 0.918750 0.0
1.414286 0.918750 0.0
1.457143 0.918750 0.0
1.500000 0.918750 0.0
0.000000 0.962500 0.0
0.042857 0.962500 0.0
0.085714 0.962500 0.0
0.128571 0.962500 0.0
0.171429 0.962500 0.0
0.214286 0.962500 0.0
0.257143 0.962500 0.0
0.300000 0.962500 0.0
0.342857 0.962500 0.0
0.385714 0.962500 0.0
0.428571 0.962500 0.0
0.471429 0.962500 0.0
0.514286 0.962500 0.0
0.557143 0.962500 0.0
0.600000 0.962500 0.0
0.642857 0.962500 0.0
0.685714 0.962500 0.0
0.728571 0.962500 0.0
0.771429 0.962500 0.0
0.814286 0.962500 0.0
0.857143 0.962500 0.0
0.900000 0.962500 0.0
0.942857 0.962500 0.0
0.985714 0.962500 0.0
1.028571 0.962500 0.0
1.071429 0.962500 0.0
1.114286 0.962500 0.0
1.157143 0.962500 0.0
1.200000 0.962500 0.0
1.242857 0.962500 0.0
1.285714 0.962500 0.0
1.328571 0.962500 0.0
1.371429 0.962500 0.0
1.414286 0.962500 0.0
1.457143 0.962500 0.0
1.500000 0.962500 0.0
0.000000 1.006250 0.0
0.042857 1.006250 0.0
0.085714 1.006250 0.0
0.128571 1.006250 0.0
0.171429 1.006250 0.0
0.214286 1.006250 0.0
0.257143 1.006250 0.0
0.300000 1.006250 0.0
0.342857 1.006250 0.0
0.385714 1.006250 0.0
0.428571 1.006250 0.0
0.471429 1.006250 0.0
0.514286 1.006250 0.0
0.557143 1.006250 0.0
0.600000 1.006250 0.0
0.642857 1.006250 0.0
0.685714 1.006250 0.0
0.728571 1.006250 0.0
0.771429 1.006250 0.0
0.814286 1.006250 0.0
0.857143 1.006250 0.0
0.900000 1.006250 0.0
0.942857 1.006250 0.0
0.985714 1.006250 0.0
1.028571 1.006250 0.0
1.071429 1.006250 0.0
1.114286 1.006250 0.0
1.157143 1.006250 0.0
1.200000 1.006250 0.0
1.242857 1.006250 0.0
1.285714 1.006250 0.0
1.328571 1.006250 0.0
1.371429 1.006250 0.0
1.414286 1.006250 0.0
1.457143 1.006250 0.0
1.500000 1.006250 0.0
0.000000 1.050000 0.0
0.042857 1.050000 0.0
0.085714 1.050000 0.0
0.128571 1.050000 0.0
0.171429 1.050000 0.0
0.214286 1.050000 0.0
0.257143 1.050000 0.0
0.300000 1.050000 0.0
0.342857 1.050000 0.0
0.385714 1.050000 0.0
0.428571 1.050000 0.0
0.471429 1.050000 0.0
0.514286 1.050000 0.0
0.557143 1.050000 0.0
0.600000 1.050000 0.0
0.642857 1.050000 0.0
0.685714 1.050000 0.0
0.728571 1.050000 0.0
0.771429 1.050000 0.0
0.814286 1.050000 0.0
0.857143 1.050000 0.0
0.900000 1.050000 0.0
0.942857 1.050000 0.0
0.985714 1.050000 0.0
1.028571 1.050000 0.0
1.071429 1.050000 0.0
1.114286 1.050000 0.0
1.157143 1.050000 0.0
1.200000 1.050000 0.0
1.242857 1.050000 0.0
1.285714 1.050000 0.0
1.328571 1.050000 0.0
1.371429 1.050000 0.0
1.414286 1.050000 0.0
1.457143 1.050000 0.0
1.500000 1.050000 0.0
0.000000 1.093750 0.0
0.042857 1.093750 0.0
0.085714 1.093750 0.0
0.128571 1.093750 0.0
0.171429 1.093750 0.0
0.214286 1.093750 0.0
0.257143 1.093750 0.0
0.300000 1.093750 0.0
0.342857 1.093750 0.0
0.385714 1.093750 0.0
0.428571 1.093750 0.0
0.471429 1.093750 0.0
0.514286 1.093750 0.0
0.557143 1.093750 0.0
0.600000 1.093750 0.0
0.642857 1.093750 0.0
0.685714 1.093750 0.0
0.728571 1.093750 0.0
0.771429 1.093750 0.0
0.814286 1.093750 0.0
0.857143 1.093750 0.0
0.900000 1.093750 0.0
0.942857 1.093750 0.0
0.985714 1.093750 0.0
1.028571 1.093750 0.0
1.071429 1.093750 0.0
1.114286 1.093750 0.0
1.157143 1.093750 0.0
1.200000 1.093750 0.0
1.242857 1.093750 0.0
1.285714 1.093750 0.0
1.328571 1.093750 0.0
1.371429 1.093750 0.0
1.414286 1.093750 0.0
1.457143 1.093750 0.0
1.500000 1.093750 0.0
0.000000 1.137500 0.0
0.042857 1.137500 0.0
0.085714 1.137500 0.0
0.128571 1.137500 0.0
0.171429 1.137500 0.0
0.214286 1.137500 0.0
0.257143 1.137500 0.0
0.300000 1.137500 0.0
0.342857 1.137500 0.0
0.385714 1.137500 0.0
0.428571 1.137500 0.0
0.471429 1.137500 0.0
0.514286 1.137500 0.0
0.557143 1.137500 0.0
0.600000 1.137500 0.0
0.642857 1.137500 0.0
0.685714 1.137500 0.0
0.728571 1.137500 0.0
0.771429 1.137500 0.0
0.814286 1.137500 0.0
0.857143 1.137500 0.0
0.900000 1.137500 0.0
0.942857 1.137500 0.0
0.985714 1.137500 0.0
1.028571 1.137500 0.0
1.071429 1.137500 0.0
1.114286 1.137500 0.0
1.157143 1.137500 0.0
1.200000 1.137500 0.0
1.242857 1.137500 0.0
1.285714 1.137500 0.0
1.328571 1.137500 0.0
1.371429 1.137500 0.0
1.414286 1.137500 0.0
1.457143 1.137500 0.0
1.500000 1.137500 0.0
0.000000 1.181250 0.0
0.042857 1.181250 0.0
0.085714 1.181250 0.0
0.128571 1.181250 0.0
0.171429 1.181250 0.0
0.214286 1.181250 0.0
0.257143 1.181250 0.0
0.300000 1.181250 0.0
0.342857 1.181250 0.0
0.385714 1.181250 0.0
0.428571 1.181250 0.0
0.471429 1.181250 0.0
0.514286 1.181250 0.0
0.557143 1.181250 0.0
0.600000 1.181250 0.0
0.642857 1.181250 0.0
0.685714 1.181250 0.0
0.728571 1.181250 0.0
0.771429 1.181250 0.0
0.814286 1.181250 0.0
0.857143 1.181250 0.0
0.900000 1.181250 0.0
0.942857 1.181250 0.0
0.985714 1.181250 0.0
1.028571 1.181250 0.0
1.071429 1.181250 0.0
1.114286 1.181250 0.0
1.157143 1.181250 0.0
1.200000 1.181250 0.0
1.242857 1.181250 0.0
1.285714 1.181250 0.0
1.328571 1.181250 0.0
1.371429 1.181250 0.0
1.414286 1.181250 0.0
1.457143 1.181250 0.0
1.500000 1.181250 0.0
0.000000 1.225000 0.0
0.042857 1.225000 0.0
0.085714 1.225000 0.0
0.128571 1.225000 0.0
0.171429 1.225000 0.0
0.214286 1.225000 0.0
0.257143 1.225000 0.0
0.300000 1.225000 0.0
0.342857 1.225000 0.0
0.385714 1.225000 0.0
0.428571 1.225000 0.0
0.471429 1.225000 0.0
0.514286 1.225000 0.0
0.557143 1.225000 0.0
0.600000 1.225000 0.0
0.642857 1.225000 0.0
0.685714 1.225000 0.0
0.728571 1.225000 0.0
0.771429 1.225000 0.0
0.814286 1.225000 0.0
0.857143 1.225000 0.0
0.900000 1.225000 0.0
0.942857 1.225000 0.0
0.985714 1.225000 0.0
1.028571 1.225000 0.0
1.071429 1.225000 0.0
1.114286 1.225000 0.0
1.157143 1.225000 0.0
1.200000 1.225000 0.0
1.242857 1.225000 0.0
1.285714 1.225000 0.0
1.328571 1.225000 0.0
1.371429 1.225000 0.0
1.414286 1.225000 0.0
1.457143 1.225000 0.0
1.500000 1.225000 0.0
0.000000 1.268750 0.0
0.042857 1.268750 0.0
0.085714 1.268750 0.0
0.128571 1.268750 0.0
0.171429 1.268750 0.0
0.214286 1.268750 0.0
0.257143 1.268750 0.0
0.300000 1.268750 0.0
0.342857 1.268750 0.0
0.385714 1.268750 0.0
0.428571 1.268750 0.0
0.471429 1.268750 0.0
0.514286 1.268750 0.0
0.557143 1.268750 0.0
0.600000 1.268750 0.0
0.642857 1.268750 0.0
0.685714 1.268750 0.0
0.728571 1.268750 0.0
0.771429 1.268750 0.0
0.814286 1.268750 0.0
0.857143 1.268750 0.0
0.900000 1.268750 0.0
0.942857 1.268750 0.0
0.985714 1.268750 0.0
1.028571 1.268750 0.0
1.071429 1.268750 0.0
1.114286 1.268750 0.0
1.157143 1.268750 0.0
1.200000 1.268750 0.0
1.242857 1.268750 0.0
1.285714 1.268750 0.0
1.328571 1.268750 0.0
1.371429 1.268750 0.0
1.414286 1.268750 0.0
1.457143 1.268750 0.0
1.500000 1.268750 0.0
0.000000 1.312500 0.0
0.042857 1.312500 0.0
0.085714 1.312500 0.0
0.128571 1.312500 0.0
0.171429 1.312500 0.0
0.214286 1.312500 0.0
0.257143 1.312500 0.0
0.300000 1.312500 0.0
0.342857 1.312500 0.0
0.385714 1.312500 0.0
0.428571 1.312500 0.0
0.471429 1.312500 0.0
0.514286 1.312500 0.0
0.557143 1.312500 0.0
0.600000 1.312500 0.0
0.642857 1.312500 0.0
0.685714 1.312500 0.0
0.728571 1.312500 0.0
0.771429 1.312500 0.0
0.814286 1.312500 0.0
0.857143 1.312500 0.0
0.900000 1.312500 0.0
0.942857 1.312500 0.0
0.985714 1.312500 0.0
1.028571 1.312500 0.0
1.071429 1.312500 0.0
1.114286 1.312500 0.0
1.157143 1.312500 0.0
1.200000 1.312500 0.0
1.242857 1.312500 0.0
1.285714 1.312500 0.0
1.328571 1.312500 0.0
1.371429 1.312500 0.0
1.414286 1.312500 0.0
1.457143 1.312500 0.0
1.500000 1.312500 0.0
0.000000 1.356250 0.0
0.042857 1.356250 0.0
0.085714 1.356250 0.0
0.128571 1.356250 0.0
0.171429 1.356250 0.0
0.214286 1.356250 0.0
0.257143 1.356250 0.0
0.300000 1.356250 0.0
0.342857 1.356250 0.0
0.385714 1.356250 0.0
0.428571 1.356250 0.0
0.471429 1.356250 0.0
0.514286 1.356250 0.0
0.557143 1.356250 0.0
0.600000 1.356250 0.0
0.642857 1.356250 0.0
0.685714 1.356250 0.0
0.728571 1.356250 0.0
0.771429 1.356250 0.0
0.814286 1.356250 0.0
0.857143 1.356250 0.0
0.900000 1.356250 0.0
0.942857 1.356250 0.0
0.985714 1.356250 0.0
1.028571 1.356250 0.0
1.071429 1.356250 0.0
1.114286 1.356250 0.0
1.157143 1.356250 0.0
1.200000 1.356250 0.0
1.242857 1.356250 0.0
1.285714 1.356250 0.0
1.328571 1.356250 0.0
1.371429 1.356250 0.0
1.414286 1.356250 0.0
1.457143 1.356250 0.0
1.500000 1.356250 0.0
0.000000 1.400000 0.0
0.042857 1.400000 0.0
0.085714 1.400000 0.0
0.128571 1.400000 0.0
0.171429 1.400000 0.0
0.214286 1.400000 0.0
0.257143 1.400000 0.0
0.300000 1.400000 0.0
0.342857 1.400000 0.0
0.385714 1.400000 0.0
0.428571 1.400000 0.0
0.471429 1.400000 0.0
0.514286 1.400000 0.0
0.557143 1.400000 0.0
0.600000 1.400000 0.0
0.642857 1.400000 0.0
0.685714 1.400000 0.0
0.728571 1.400000 0.0
0.771429 1.400000 0.0
0.814286 1.400000 0.0
0.857143 1.400000 0.0
0.900000 1.400000 0.0
0.942857 1.400000 0.0
0.985714 1.400000 0.0
1.028571 1.400000 0.0
1.071429 1.400000 0.0
1.114286 1.400000 0.0
1.157143 1.400000 0.0
1.200000 1.400000 0.0
1.242857 1.400000 0.0
1.285714 1.400000 0.0
1.328571 1.400000 0.0
1.371429 1.400000 0.0
1.414286 1.400000 0.0
1.457143 1.400000 0.0
1.500000 1.400000 0.0
0.000000 1.443750 0.0
0.042857 1.443750 0.0
0.085714 1.443750 0.0
0.128571 1.443750 0.0
0.171429 1.443750 0.0
0.214286 1.443750 0.0
0.257143 1.443750 0.0
0.300000 1.443750 0.0
0.342857 1.443750 0.0
0.385714 1.443750 0.0
0.428571 1.443750 0.0
0.471429 1.443750 0.0
0.514286 1.443750 0.0
0.557143 1.443750 0.0
0.600000 1.443750 0.0
0.642857 1.443750 0.0
0.685714 1.443750 0.0
0.728571 1.443750 0.0
0.771429 1.443750 0.0
0.814286 1.443750 0.0
0.857143 1.443750 0.0
0.900000 1.443750 0.0
0.942857 1.443750 0.0
0.985714 1.443750 0.0
1.028571 1.443750 0.0
1.071429 1.443750 0.0
1.114286 1.443750 0.0
1.157143 1.443750 0.0
1.200000 1.443750 0.0
1.242857 1.443750 0.0
1.285714 1.443750 0.0
1.328571 1.443750 0.0
1.371429 1.443750 0.0
1.414286 1.443750 0.0
1.457143 1.443750 0.0
1.500000 1.443750 0.0
0.000000 1.487500 0.0
0.042857 1.487500 0.0
0.085714 1.487500 0.0
0.128571 1.487500 0.0
0.171429 1.487500 0.0
0.214286 1.487500 0.0
0.257143 1.487500 0.0
0.300000 1.487500 0.0
0.342857 1.487500 0.0
0.385714 1.487500 0.0
0.428571 1.487500 0.0
0.471429 1.487500 0.0
0.514286 1.487500 0.0
0.557143 1.487500 0.0
0.600000 1.487500 0.0
0.642857 1.487500 0.0
0.685714 1.487500 0.0
0.728571 1.487500 0.0
0.771429 1.487500 0.0
0.814286 1.487500 0.0
0.857143 1.487500 0.0
0.900000 1.487500 0.0
0.942857 1.487500 0.0
0.985714 1.487500 0.0
1.028571 1.487500 0.0
1.071429 1.487500 0.0
1.114286 1.487500 0.0
1.157143 1.487500 0.0
1.200000 1.487500 0.0
1.242857 1.487500 0.0
1.285714 1.487500 0.0
1.328571 1.487500 0.0
1.371429 1.487500 0.0
1.414286 1.487500 0.0
1.457143 1.487500 0.0
1.500000 1.487500 0.0
0.000000 1.531250 0.0
0.042857 1.531250 0.0
0.085714 1.531250 0.0
0.128571 1.531250 0.0
0.171429 1.531250 0.0
0.214286 1.531250 0.0
0.257143 1.531250 0.0
0.300000 1.531250 0.0
0.342857 1.531250 0.0
0.385714 1.531250 0.0
0.428571 1.531250 0.0
0.471429 1.531250 0.0
0.514286 1.531250 0.0
0.557143 1.531250 0.0
0.600000 1.531250 0.0
0.642857 1.531250 0.0
0.685714 1.531250 0.0
0.728571 1.531250 0.0
0.771429 1.531250 0.0
0.814286 1.531250 0.0
0.857143 1.531250 0.0
0.900000 1.531250 0.0
0.942857 1.531250 0.0
0.985714 1.531250 0.0
1.028571 1.531250 0.0
1.071429 1.531250 0.0
1.114286 1.531250 0.0
1.157143 1.531250 0.0
1.200000 1.531250 0.0
1.242857 1.531250 0.0
1.285714 1.531250 0.0
1.328571 1.531250 0.0
1.371429 1.531250 0.0
1.414286 1.531250 0.0
1.457143 1.531250 0.0
1.500000 1.531250 0.0
0.000000 1.575000 0.0
0.042857 1.575000 0.0
0.085714 1.575000 0.0
0.128571 1.575000 0.0
0.171429 1.575000 0.0
0.214286 1.575000 0.0
0.257143 1.575000 0.0
0.300000 1.575000 0.0
0.342857 1.575000 0.0
0.385714 1.575000 0.0
0.428571 1.575000 0.0
0.471429 1.575000 0.0
0.514286 1.575000 0.0
0.557143 1.575000 0.0
0.600000 1.575000 0.0
0.642857 1.575000 0.0
0.685714 1.575000 0.0
0.728571 1.575000 0.0
0.771429 1.575000 0.0
0.814286 1.575000 0.0
0.857143 1.575000 0.0
0.900000 1.575000 0.0
0.942857 1.575000 0.0
0.985714 1.575000 0.0
1.028571 1.575000 0.0
1.071429 1.575000 0.0
1.114286 1.575000 0.0
1.157143 1.575000 0.0
1.200000 1.575000 0.0
1.242857 1.575000 0.0
1.285714 1.575000 0.0
1.328571 1.575000 0.0
1.371429 1.575000 0.0
1.414286 1.575000 0.0
1.457143 1.575000 0.0
1.500000 1.575000 0.0
0.000000 1.618750 0.0
0.042857 1.618750 0.0
0.085714 1.618750 0.0
0.128571 1.618750 0.0
0.171429 1.618750 0.0
0.214286 1.618750 0.0
0.257143 1.618750 0.0
0.300000 1.618750 0.0
0.342857 1.618750 0.0
0.385714 1.618750 0.0
0.428571 1.618750 0.0
0.471429 1.618750 0.0
0.514286 1.618750 0.0
0.557143 1.618750 0.0
0.600000 1.618750 0.0
0.642857 1.618750 0.0
0.685714 1.618750 0.0
0.728571 1.618750 0.0
0.771429 1.618750 0.0
0.814286 1.618750 0.0
0.857143 1.618750 0.0
0.900000 1.618750 0.0
0.942857 1.618750 0.0
0.985714 1.618750 0.0
1.028571 1.618750 0.0
1.071429 1.618750 0.0
1.114286 1.618750 0.0
1.157143 1.618750 0.0
1.200000 1.618750 0.0
1.242857 1.618750 0.0
1.285714 1.618750 0.0
1.328571 1.618750 0.0
1.371429 1.618750 0.0
1.414286 1.618750 0.0
1.457143 1.618750 0.0
1.500000 1.618750 0.0
0.000000 1.662500 0.0
0.042857 1.662500 0.0
0.085714 1.662500 0.0
0.128571 1.662500 0.0
0.171429 1.662500 0.0
0.214286 1.662500 0.0
0.257143 1.662500 0.0
0.300000 1.662500 0.0
0.342857 1.662500 0.0
0.385714 1.662500 0.0
0.428571 1.662500 0.0
0.471429 1.662500 0.0
0.514286 1.662500 0.0
0.557143 1.662500 0.0
0.600000 1.662500 0.0
0.642857 1.662500 0.0
0.685714 1.662500 0.0
0.728571 1.662500 0.0
0.771429 1.662500 0.0
0.814286 1.662500 0.0
0.857143 1.662500 0.0
0.900000 1.662500 0.0
0.942857 1.662500 0.0
0.985714 1.662500 0.0
1.028571 1.662500 0.0
1.071429 1.662500 0.0
1.114286 1.662500 0.0
1.157143 1.662500 0.0
1.200000 1.662500 0.0
1.242857 1.662500 0.0
1.285714 1.662500 0.0
1.328571 1.662500 0.0
1.371429 1.662500 0.0
1.414286 1.662500 0.0
1.457143 1.662500 0.0
1.500000 1.662500 0.0
0.000000 1.706250 0.0
0.042857 1.706250 0.0
0.085714 1.706250 0.0
0.128571 1.706250 0.0
0.171429 1.706250 0.0
0.214286 1.706250 0.0
0.257143 1.706250 0.0
0.300000 1.706250 0.0
0.342857 1.706250 0.0
0.385714 1.706250 0.0
0.428571 1.706250 0.0
0.471429 1.706250 0.0
0.514286 1.706250 0.0
0.557143 1.706250 0.0
0.600000 1.706250 0.0
0.642857 1.706250 0.0
0.685714 1.706250 0.0
0.728571 1.706250 0.0
0.771429 1.706250 0.0
0.814286 1.706250 0.0
0.857143 1.706250 0.0
0.900000 1.706250 0.0
0.942857 1.706250 0.0
0.985714 1.706250 0.0
1.028571 1.706250 0.0
1.071429 1.706250 0.0
1.114286 1.706250 0.0
1.157143 1.706250 0.0
1.200000 1.706250 0.0
1.242857 1.706250 0.0
1.285714 1.706250 0.0
1.328571 1.706250 0.0
1.371429 1.706250 0.0
1.414286 1.706250 0.0
1.457143 1.706250 0.0
1.500000 1.706250 0.0
0.000000 1.750000 0.0
0.042857 1.750000 0.0
0.085714 1.750000 0.0
0.128571 1.750000 0.0
0.171429 1.750000 0.0
0.214286 1.750000 0.0
0.257143 1.750000 0.0
0.300000 1.750000 0.0
0.342857 1.750000 0.0
0.385714 1.750000 0.0
0.428571 1.750000 0.0
0.471429 1.750000 0.0
0.514286 1.750000 0.0
0.557143 1.750000 0.0
0.600000 1.750000 0.0
0.642857 1.750000 0.0
0.685714 1.750000 0.0
0.728571 1.750000 0.0
0.771429 1.750000 0.0
0.814286 1.750000 0.0
0.857143 1.750000 0.0
0.900000 1.750000 0.0
0.942857 1.750000 0.0
0.985714 1.750000 0.0
1.028571 1.750000 0.0
1.071429 1.750000 0.0
1.114286 1.750000 0.0
1.157143 1.750000 0.0
1.200000 1.750000 0.0
1.242857 1.750000 0.0
1.285714 1.750000 0.0
1.328571 1.750000 0.0
1.371429 1.750000 0.0
1.414286 1.750000 0.0
1.457143 1.750000 0.0
1.500000 1.750000 0.0
</DataArray></Points>
<PointData>
<DataArray NumberOfComponents="1" format="ascii" type ="Float32" Name="phi">
1.190133
1.177408
1.140785
1.104701
1.069130
1.033857
0.998812
0.964051
0.929820
0.896326
0.863437
0.830956
0.798849
0.767193
0.736195
0.706001
0.676570
0.647839
0.619865
0.592929
0.567260
0.542797
0.519468
0.497377
0.476765
0.457805
0.440476
0.424765
0.410779
0.398642
0.388530
0.380904
0.375966
0.373165
0.372013
0.372748
1.173504
1.154909
1.117967
1.081461
1.045243
1.009221
0.973435
0.938114
0.903488
0.869447
0.835783
0.802446
0.769527
0.737270
0.705823
0.675075
0.644910
0.615357
0.586606
0.558928
0.532385
0.506892
0.482511
0.459528
0.438202
0.418508
0.400364
0.383864
0.369215
0.356512
0.345832
0.337684
0.332437
0.329521
0.328330
0.329105
1.152279
1.133528
1.096177
1.059071
1.022136
0.985393
0.949034
0.913300
0.878128
0.843310
0.808780
0.774622
0.741104
0.708397
0.676357
0.644835
0.613844
0.583519
0.554089
0.525645
0.498126
0.471552
0.446174
0.422352
0.400184
0.379570
0.360530
0.343240
0.327909
0.314576
0.303278
0.294537
0.288917
0.285874
0.284640
0.285459
1.132221
1.113218
1.075295
1.037525
0.999918
0.962607
0.925816
0.889547
0.853615
0.817941
0.782586
0.747806
0.713811
0.680471
0.647612
0.615229
0.583446
0.552471
0.522376
0.493072
0.464540
0.436963
0.410685
0.385912
0.362666
0.341007
0.321057
0.302970
0.286873
0.272824
0.260875
0.251469
0.245407
0.242223
0.240943
0.241808
1.113133
1.093837
1.055311
1.016939
0.978793
0.941033
0.903720
0.866736
0.829994
0.793526
0.757525
0.722224
0.687563
0.653361
0.619591
0.586364
0.553910
0.522310
0.491431
0.461204
0.431745
0.403310
0.376102
0.350177
0.325701
0.302957
0.282085
0.263109
0.246118
0.231279
0.218641
0.208490
0.201910
0.198568
0.197235
0.198151
1.094974
1.075403
1.036346
0.997489
0.958892
0.920615
0.882646
0.844933
0.807483
0.770375
0.733797
0.697805
0.662264
0.627120
0.592449
0.558490
0.525388
0.493004
0.461224
0.430117
0.399866
0.370605
0.342349
0.315203
0.289508
0.265636
0.243706
0.223687
0.205691
0.189984
0.176604
0.165615
0.158427
0.154908
0.153516
0.154488
1.077821
1.058027
1.018536
0.979244
0.940156
0.901288
0.862686
0.824364
0.786322
0.748609
0.711324
0.674483
0.638031
0.601994
0.566521
0.531828
0.497886
0.464546
0.431850
0.399951
0.368934
0.338758
0.309433
0.281173
0.254305
0.229145
0.205938
0.184770
0.165678
0.148975
0.134796
0.122877
0.114970
0.111247
0.109789
0.110823
1.061781
1.041791
1.001886
0.962130
0.922525
0.883126
0.844000
0.805138
0.766507
0.728129
0.690084
0.652437
0.615184
0.578340
0.542046
0.506430
0.471457
0.437111
0.403531
0.370815
0.338906
0.307760
0.277466
0.248200
0.220132
0.193543
0.168906
0.146480
0.126191
0.108296
0.093233
0.080251
0.071437
0.067509
0.065996
0.067107
1.046885
1.026684
0.986341
0.946115
0.906041
0.866195
0.826589
0.787174
0.747939
0.708923
0.670221
0.631890
0.593904
0.556262
0.519059
0.482425
0.446406
0.411044
0.376478
0.342749
0.309810
0.277711
0.246516
0.216258
0.187013
0.159040
0.132813
0.108883
0.087341
0.067930
0.051804
0.038799
0.029748
0.025246
0.023396
0.024402
1.033129
1.012714
0.971935
0.931273
0.890787
0.850508
0.810401
0.770438
0.730638
0.691068
0.651802
0.612831
0.574120
0.535695
0.497649
0.460096
0.423075
0.386622
0.350875
0.315947
0.281894
0.248776
0.216596
0.185324
0.155003
0.125781
0.097903
0.072070
0.049168
0.029182
0.012468
-0.000809
-0.010433
-0.016122
-0.018627
-0.017812
1.020617
0.999999
0.958813
0.917750
0.876846
0.836098
0.795482
0.755003
0.714697
0.674623
0.634796
0.595185
0.555790
0.516660
0.477884
0.439512
0.401539
0.364015
0.327083
0.290878
0.255523
0.221147
0.187796
0.155452
0.124094
0.093742
0.064496
0.037669
0.013940
-0.006955
-0.025305
-0.040835
-0.052110
-0.058868
-0.061829
-0.061014
1.009516
0.988711
0.947147
0.905686
0.864335
0.823102
0.782000
0.741042
0.700251
0.659652
0.619236
0.579001
0.538972
0.499205
0.459747
0.420598
0.381762
0.343310
0.305344
0.267923
0.231157
0.195245
0.160425
0.126800
0.094308
0.062804
0.033398
0.006796
-0.018424
-0.042134
-0.063473
-0.081547
-0.094596
-0.102265
-0.105512
-0.104613
0.999831
0.978873
0.936976
0.895144
0.853393
0.811734
0.770192
0.728772
0.687474
0.646310
0.605294
0.564454
0.523821
0.483425
0.443277
0.403376
0.363759
0.324488
0.285607
0.247141
0.209154
0.171744
0.135147
0.099692
0.065737
0.034424
0.005848
-0.022214
-0.050394
-0.077011
-0.100940
-0.121309
-0.136491
-0.145493
-0.149165
-0.148192
0.991298
0.970299
0.928225
0.886097
0.844030
0.802039
0.760124
0.718286
0.676522
0.634843
0.593277
0.551860
0.510611
0.469538
0.428658
0.388009
0.347633
0.307562
0.267819
0.228438
0.189461
0.150892
0.112760
0.075165
0.040273
0.010006
-0.019540
-0.050781
-0.081564
-0.110582
-0.136992
-0.159858
-0.177583
-0.188442
-0.192790
-0.191757
0.981671
0.961788
0.920780
0.878469
0.836144
0.793890
0.751681
0.709516
0.667395
0.625327
0.583331
0.541426
0.499621
0.457920
0.416347
0.374951
0.333763
0.292807
0.252129
0.211801
0.171855
0.132314
0.093200
0.054401
0.018554
-0.012933
-0.044959
-0.078618
-0.111238
-0.142330
-0.171176
-0.196778
-0.217495
-0.230896
-0.236360
-0.235301
0.960539
0.947311
0.913722
0.872119
0.829629
0.787159
0.744729
0.702325
0.659947
0.617601
0.575298
0.533045
0.490840
0.448687
0.406600
0.364600
0.322706
0.280938
0.239336
0.197961
0.156843
0.116024
0.075530
0.036648
-0.000994
-0.036374
-0.070402
-0.105205
-0.139196
-0.172041
-0.203153
-0.231582
-0.255681
-0.272475
-0.279776
-0.278807
0.923369
0.919412
0.901262
0.866361
0.824346
0.781730
0.739130
0.696554
0.653995
0.611456
0.568941
0.526451
0.483985
0.441545
0.399137
0.356770
0.314447
0.272172
0.229955
0.187812
0.145753
0.103792
0.061905
0.022921
-0.016423
-0.056528
-0.093702
-0.129961
-0.165329
-0.199725
-0.232813
-0.263884
-0.291488
-0.312504
-0.322747
-0.322255
0.879855
0.879773
0.875150
0.855669
0.819792
0.777495
0.734780
0.692075
0.649386
0.606709
0.564046
0.521396
0.478758
0.436135
0.393530
0.350945
0.308382
0.265841
0.223326
0.180840
0.138381
0.095950
0.053508
0.014191
-0.025406
-0.067772
-0.108786
-0.148528
-0.187034
-0.224131
-0.259664
-0.293358
-0.324345
-0.350050
-0.364735
-0.365601
0.836106
0.836188
0.836180
0.831081
0.810604
0.774075
0.731617
0.688826
0.646041
0.603265
0.560495
0.517732
0.474975
0.432227
0.389488
0.346760
0.304043
0.261339
0.218650
0.175977
0.133318
0.090676
0.048002
0.008307
-0.030241
-0.071864
-0.114552
-0.156897
-0.198603
-0.239302
-0.278791
-0.316728
-0.352276
-0.383521
-0.404660
-0.408476
0.792356
0.792439
0.792634
0.792661
0.787243
0.766231
0.729415
0.686853
0.644008
0.601165
0.558325
0.515488
0.472653
0.429822
0.386994
0.344170
0.301352
0.258539
0.215733
0.172934
0.130140
0.087351
0.044543
0.003994
-0.035254
-0.076613
-0.119160
-0.161641
-0.204052
-0.246496
-0.288772
-0.330489
-0.370921
-0.408672
-0.439018
-0.448532
0.759544
0.748690
0.748887
0.749146
0.749238
0.743787
0.722913
0.686310
0.643753
0.600898
0.558051
0.515208
0.472367
0.429529
0.386695
0.343867
0.301046
0.258233
0.215428
0.172633
0.129850
0.087076
0.044304
0.002437
-0.039067
-0.081291
-0.123801
-0.166279
-0.208641
-0.250986
-0.293104
-0.334665
-0.374876
-0.412009
-0.442708
-0.455718
</DataArray>
<DataArray NumberOfComponents="1" format="ascii" type ="Float32" Name="u">
0.000000
0.010800
0.010815
0.010850
0.010911
0.011002
0.011127
0.011287
0.011486
0.011726
0.012009
0.012338
0.012717
0.013147
0.013632
0.014171
0.014762
0.015394
0.016053
0.016710
0.017329
0.017859
0.018245
0.018433
0.018375
0.018038
0.017406
0.016473
0.015248
0.013750
0.012003
0.010045
0.007914
0.005656
0.003313
0.000919
0.010625
0.010625
0.010638
0.010672
0.010735
0.010831
0.010964
0.011136
0.011349
0.011608
0.011914
0.012273
0.012689
0.013166
0.013708
0.014318
0.014998
0.015741
0.016535
0.017353
0.018155
0.018886
0.019481
0.019873
0.020004
0.019832
0.019334
0.018500
0.017329
0.015829
0.014015
0.011910
0.009544
0.006954
0.004185
0.001283
0.010402
0.010402
0.010417
0.010454
0.010521
0.010623
0.010764
0.010947
0.011175
0.011451
0.011780
0.012166
0.012616
0.013135
0.013731
0.014410
0.015176
0.016029
0.016960
0.017945
0.018943
0.019891
0.020714
0.021332
0.021675
0.021694
0.021357
0.020651
0.019568
0.018103
0.016254
0.014022
0.011417
0.008461
0.005191
0.001665
0.010137
0.010137
0.010155
0.010196
0.010268
0.010376
0.010525
0.010719
0.010960
0.011253
0.011602
0.012014
0.012494
0.013053
0.013698
0.014441
0.015290
0.016250
0.017318
0.018473
0.019674
0.020853
0.021919
0.022777
0.023344
0.023563
0.023401
0.022839
0.021862
0.020453
0.018588
0.016241
0.013390
0.010031
0.006189
0.001940
0.009834
0.009834
0.009853
0.009897
0.009974
0.010089
0.010246
0.010450
0.010703
0.011011
0.011379
0.011814
0.012323
0.012916
0.013607
0.014408
0.015334
0.016397
0.017599
0.018927
0.020336
0.021752
0.023068
0.024169
0.024958
0.025370
0.025371
0.024942
0.024062
0.022699
0.020804
0.018320
0.015189
0.011379
0.006909
0.001892
0.009492
0.009492
0.009512
0.009559
0.009641
0.009761
0.009926
0.010139
0.010404
0.010726
0.011110
0.011564
0.012098
0.012724
0.013455
0.014309
0.015307
0.016467
0.017800
0.019297
0.020917
0.022572
0.024135
0.025468
0.026456
0.027028
0.027152
0.026808
0.025969
0.024585
0.022583
0.019877
0.016377
0.012045
0.006942
0.001268
0.009109
0.009109
0.009131
0.009181
0.009266
0.009392
0.009564
0.009785
0.010060
0.010393
0.010792
0.011264
0.011820
0.012473
0.013240
0.014143
0.015206
0.016457
0.017915
0.019578
0.021404
0.023291
0.025085
0.026620
0.027760
0.028429
0.028595
0.028238
0.027318
0.025762
0.023467
0.020348
0.016322
0.011427
0.005865
-0.000033
0.008686
0.008686
0.008709
0.008761
0.008849
0.008980
0.009158
0.009386
0.009669
0.010013
0.010424
0.010911
0.011486
0.012163
0.012961
0.013906
0.015029
0.016363
0.017938
0.019758
0.021778
0.023878
0.025871
0.027554
0.028768
0.029430
0.029507
0.028968
0.027749
0.025740
0.022792
0.018956
0.014288
0.009050
0.003627
-0.001654
0.008221
0.008221
0.008244
0.008298
0.008390
0.008524
0.008706
0.008940
0.009229
0.009581
0.010002
0.010501
0.011092
0.011789
0.012614
0.013595
0.014770
0.016178
0.017857
0.019817
0.022007
0.024283
0.026418
0.028165
0.029338
0.029843
0.029633
0.028643
0.026758
0.023854
0.019628
0.014862
0.009918
0.005186
0.000936
-0.002810
0.007712
0.007712
0.007736
0.007792
0.007886
0.008023
0.008208
0.008445
0.008739
0.009096
0.009523
0.010031
0.010632
0.011345
0.012191
0.013202
0.014418
0.015885
0.017647
0.019716
0.022032
0.024424
0.026616
0.028312
0.029291
0.029433
0.028650
0.026783
0.023607
0.019153
0.013809
0.008853
0.004711
0.001500
-0.000923
-0.002862
0.007160
0.007160
0.007185
0.007241
0.007336
0.007475
0.007661
0.007900
0.008195
0.008553
0.008982
0.009494
0.010101
0.010822
0.011681
0.012710
0.013952
0.015456
0.017266
0.019393
0.021767
0.024185
0.026322
0.027824
0.028419
0.027932
0.026187
0.022747
0.017794
0.012212
0.007540
0.003883
0.001289
-0.000386
-0.001445
-0.002204
0.006564
0.006564
0.006590
0.006646
0.006742
0.006880
0.007065
0.007301
0.007593
0.007947
0.008373
0.008882
0.009486
0.010206
0.011065
0.012097
0.013341
0.014844
0.016647
0.018756
0.021088
0.023418
0.025371
0.026522
0.026522
0.025081
0.021816
0.016517
0.010837
0.006235
0.003241
0.001151
-0.000189
-0.000944
-0.001327
-0.001530
0.005926
0.005926
0.005951
0.006007
0.006101
0.006237
0.006417
0.006646
0.006930
0.007275
0.007689
0.008185
0.008775
0.009479
0.010320
0.011328
0.012536
0.013984
0.015702
0.017688
0.019856
0.021971
0.023615
0.024275
0.023486
0.020740
0.015643
0.009922
0.005504
0.002650
0.000828
-0.000330
-0.000934
-0.001144
-0.001110
-0.000966
0.005245
0.005245
0.005270
0.005325
0.005416
0.005545
0.005717
0.005935
0.006203
0.006529
0.006922
0.007391
0.007952
0.008619
0.009414
0.010360
0.011480
0.012799
0.014332
0.016068
0.017938
0.019723
0.020975
0.021071
0.019439
0.015036
0.009313
0.005047
0.002273
0.000467
-0.000586
-0.001123
-0.001267
-0.001147
-0.000871
-0.000527
0.004525
0.004525
0.004549
0.004602
0.004687
0.004807
0.004965
0.005164
0.005409
0.005706
0.006062
0.006489
0.006997
0.007600
0.008312
0.009146
0.010112
0.011213
0.012446
0.013803
0.015251
0.016635
0.017501
0.017060
0.014520
0.009085
0.004676
0.001975
0.000214
-0.000833
-0.001339
-0.001473
-0.001344
-0.001047
-0.000652
-0.000213
0.003769
0.003769
0.003791
0.003840
0.003917
0.004024
0.004162
0.004335
0.004546
0.004800
0.005105
0.005468
0.005897
0.006400
0.006984
0.007647
0.008383
0.009172
0.009999
0.010865
0.011800
0.012767
0.013392
0.012678
0.008806
0.004425
0.001704
0.000006
-0.001001
-0.001507
-0.001655
-0.001561
-0.001300
-0.000930
-0.000489
-0.000012
0.002981
0.002981
0.003002
0.003046
0.003111
0.003200
0.003312
0.003449
0.003615
0.003812
0.004046
0.004321
0.004641
0.005006
0.005411
0.005844
0.006277
0.006678
0.007020
0.007324
0.007689
0.008229
0.008742
0.008133
0.003670
0.001262
-0.000245
-0.001145
-0.001623
-0.001798
-0.001759
-0.001564
-0.001251
-0.000851
-0.000389
0.000110
0.002169
0.002169
0.002189
0.002225
0.002277
0.002341
0.002420
0.002512
0.002620
0.002746
0.002890
0.003053
0.003232
0.003419
0.003601
0.003751
0.003832
0.003800
0.003630
0.003358
0.003137
0.003209
0.003594
0.003384
0.000466
-0.000728
-0.001395
-0.001782
-0.001962
-0.001975
-0.001848
-0.001598
-0.001246
-0.000812
-0.000320
0.000206
0.001343
0.001343
0.001361
0.001389
0.001422
0.001457
0.001494
0.001533