<VTKFile type="StructuredGrid" version="0.1" byte_order="LittleEndian">
<StructuredGrid WholeExtent="1 71 1 81 0 0">
<Piece Extent="1 36 41 61 0 0">
<PointData></PointData>
<CellData></CellData>
<Points>
<DataArray NumberOfComponents="3" format="ascii" type ="Float32" Name="mesh">
0.000000 1.750000 0.0
0.042857 1.750000 0.0
0.085714 1.750000 0.0
0.128571 1.750000 0.0
0.171429 1.750000 0.0
0.214286 1.750000 0.0
0.257143 1.750000 0.0
0.300000 1.750000 0.0
0.342857 1.750000 0.0
0.385714 1.750000 0.0
0.428571 1.750000 0.0
0.471429 1.750000 0.0
0.514286 1.750000 0.0
0.557143 1.750000 0.0
0.600000 1.750000 0.0
0.642857 1.750000 0.0
0.685714 1.750000 0.0
0.728571 1.750000 0.0
0.771429 1.750000 0.0
0.814286 1.750000 0.0
0.857143 1.750000 0.0
0.900000 1.750000 0.0
0.942857 1.750000 0.0
0.985714 1.750000 0.0
1.028571 1.750000 0.0
1.071429 1.750000 0.0
1.114286 1.750000 0.0
1.157143 1.750000 0.0
1.200000 1.750000 0.0
1.242857 1.750000 0.0
1.285714 1.750000 0.0
1.328571 1.750000 0.0
1.371429 1.750000 0.0
1.414286 1.750000 0.0
1.457143 1.750000 0.0
1.500000 1.750000 0.0
0.000000 1.793750 0.0
0.042857 1.793750 0.0
0.085714 1.793750 0.0
0.128571 1.793750 0.0
0.171429 1.793750 0.0
0.214286 1.793750 0.0
0.257143 1.793750 0.0
0.300000 1.793750 0.0
0.342857 1.793750 0.0
0.385714 1.793750 0.0
0.428571 1.793750 0.0
0.471429 1.793750 0.0
0.514286 1.793750 0.0
0.557143 1.793750 0.0
0.600000 1.793750 0.0
0.642857 1.793750 0.0
0.685714 1.793750 0.0
0.728571 1.793750 0.0
0.771429 1.793750 0.0
0.814286 1.793750 0.0
0.857143 1.793750 0.0
0.900000 1.793750 0.0
0.942857 1.793750 0.0
0.985714 1.793750 0.0
1.028571 1.793750 0.0
1.071429 1.793750 0.0
1.114286 1.793750 0.0
1.157143 1.793750 0.0
1.200000 1.793750 0.0
1.242857 1.793750 0.0
1.285714 1.793750 0.0
1.328571 1.793750 0.0
1.371429 1.793750 0.0
1.414286 1.793750 0.0
1.457143 1.793750 0.0
1.500000 1.793750 0.0
0.000000 1.837500 0.0
0.042857 1.837500 0.0
0.085714 1.837500 0.0
0.128571 1.837500 0.0
0.171429 1.837500 0.0
0.214286 1.837500 0.0
0.257143 1.837500 0.0
0.300000 1.837500 0.0
0.342857 1.837500 0.0
0.385714 1.837500 0.0
0.428571 1.837500 0.0
0.471429 1.837500 0.0
0.514286 1.837500 0.0
0.557143 1.837500 0.0
0.600000 1.837500 0.0
0.642857 1.837500 0.0
0.685714 1.837500 0.0
0.728571 1.837500 0.0
0.771429 1.837500 0.0
0.814286 1.837500 0.0
0.857143 1.837500 0.0
0.900000 1.837500 0.0
0.942857 1.837500 0.0
0.985714 1.837500 0.0
1.028571 1.837500 0.0
1.071429 1.837500 0.0
1.114286 1.837500 0.0
1.157143 1.837500 0.0
1.200000 1.837500 0.0
1.242857 1.837500 0.0
1.285714 1.837500 0.0
1.328571 1.837500 0.0
1.371429 1.837500 0.0
1.414286 1.837500 0.0
1.457143 1.837500 0.0
1.500000 1.837500 0.0
0.000000 1.881250 0.0
0.042857 1.881250 0.0
0.085714 1.881250 0.0
0.128571 1.881250 0.0
0.171429 1.881250 0.0
0.214286 1.881250 0.0
0.257143 1.881250 0.0
0.300000 1.881250 0.0
0.342857 1.881250 0.0
0.385714 1.881250 0.0
0.428571 1.881250 0.0
0.471429 1.881250 0.0
0.514286 1.881250 0.0
0.557143 1.881250 0.0
0.600000 1.881250 0.0
0.642857 1.881250 0.0
0.685714 1.881250 0.0
0.728571 1.881250 0.0
0.771429 1.881250 0.0
0.814286 1.881250 0.0
0.857143 1.881250 0.0
0.900000 1.881250 0.0
0.942857 1.881250 0.0
0.985714 1.881250 0.0
1.028571 1.881250 0.0
1.071429 1.881250 0.0
1.114286 1.881250 0.0
1.157143 1.881250 0.0
1.200000 1.881250 0.0
1.242857 1.881250 0.0
1.285714 1.881250 0.0
1.328571 1.881250 0.0
1.371429 1.881250 0.0
1.414286 1.881250 0.0
1.457143 1.881250 0.0
1.500000 1.881250 0.0
0.000000 1.925000 0.0
0.042857 1.925000 0.0
0.085714 1.925000 0.0
0.128571 1.925000 0.0
0.171429 1.925000 0.0
0.214286 1.925000 0.0
0.257143 1.925000 0.0
0.300000 1.925000 0.0
0.342857 1.925000 0.0
0.385714 1.925000 0.0
0.428571 1.925000 0.0
0.471429 1.925000 0.0
0.514286 1.925000 0.0
0.557143 1.925000 0.0
0.600000 1.925000 0.0
0.642857 1.925000 0.0
0.685714 1.925000 0.0
0.728571 1.925000 0.0
0.771429 1.925000 0.0
0.814286 1.925000 0.0
0.857143 1.925000 0.0
0.900000 1.925000 0.0
0.942857 1.925000 0.0
0.985714 1.925000 0.0
1.028571 1.925000 0.0
1.071429 1.925000 0.0
1.114286 1.925000 0.0
1.157143 1.925000 0.0
1.200000 1.925000 0.0
1.242857 1.925000 0.0
1.285714 1.925000 0.0
1.328571 1.925000 0.0
1.371429 1.925000 0.0
1.414286 1.925000 0.0
1.457143 1.925000 0.0
1.500000 1.925000 0.0
0.000000 1.968750 0.0
0.042857 1.968750 0.0
0.085714 1.968750 0.0
0.128571 1.968750 0.0
0.171429 1.968750 0.0
0.214286 1.968750 0.0
0.257143 1.968750 0.0
0.300000 1.968750 0.0
0.342857 1.968750 0.0
0.385714 1.968750 0.0
0.428571 1.968750 0.0
0.471429 1.968750 0.0
0.514286 1.968750 0.0
0.557143 1.968750 0.0
0.600000 1.968750 0.0
0.642857 1.968750 0.0
0.685714 1.968750 0.0
0.728571 1.968750 0.0
0.771429 1.968750 0.0
0.814286 1.968750 0.0
0.857143 1.968750 0.0
0.900000 1.968750 0.0
0.942857 1.968750 0.0
0.985714 1.968750 0.0
1.028571 1.968750 0.0
1.071429 1.968750 0.0
1.114286 1.968750 0.0
1.157143 1.968750 0.0
1.200000 1.968750 0.0
1.242857 1.968750 0.0
1.285714 1.968750 0.0
1.328571 1.968750 0.0
1.371429 1.968750 0.0
1.414286 1.968750 0.0
1.457143 1.968750 0.0
1.500000 1.968750 0.0
0.000000 2.012500 0.0
0.042857 2.012500 0.0
0.085714 2.012500 0.0
0.128571 2.012500 0.0
0.171429 2.012500 0.0
0.214286 2.012500 0.0
0.257143 2.012500 0.0
0.300000 2.012500 0.0
0.342857 2.012500 0.0
0.385714 2.012500 0.0
0.428571 2.012500 0.0
0.471429 2.012500 0.0
0.514286 2.012500 0.0
0.557143 2.012500 0.0
0.600000 2.012500 0.0
0.642857 2.012500 0.0
0.685714 2.012500 0.0
0.728571 2.012500 0.0
0.771429 2.012500 0.0
0.814286 2.012500 0.0
0.857143 2.012500 0.0
0.900000 2.012500 0.0
0.942857 2.012500 0.0
0.985714 2.012500 0.0
1.028571 2.012500 0.0
1.071429 2.012500 0.0
1.114286 2.012500 0.0
1.157143 2.012500 0.0
1.200000 2.012500 0.0
1.242857 2.012500 0.0
1.285714 2.012500 0.0
1.328571 2.012500 0.0
1.371429 2.012500 0.0
1.414286 2.012500 0.0
1.457143 2.012500 0.0
1.500000 2.012500 0.0
0.000000 2.056250 0.0
0.042857 2.056250 0.0
0.085714 2.056250 0.0
0.128571 2.056250 0.0
0.171429 2.056250 0.0
0.214286 2.056250 0.0
0.257143 2.056250 0.0
0.300000 2.056250 0.0
0.342857 2.056250 0.0
0.385714 2.056250 0.0
0.428571 2.056250 0.0
0.471429 2.056250 0.0
0.514286 2.056250 0.0
0.557143 2.056250 0.0
0.600000 2.056250 0.0
0.642857 2.056250 0.0
0.685714 2.056250 0.0
0.728571 2.056250 0.0
0.771429 2.056250 0.0
0.814286 2.056250 0.0
0.857143 2.056250 0.0
0.900000 2.056250 0.0
0.942857 2.056250 0.0
0.985714 2.056250 0.0
1.028571 2.056250 0.0
1.071429 2.056250 0.0
1.114286 2.056250 0.0
1.157143 2.056250 0.0
1.200000 2.056250 0.0
1.242857 2.056250 0.0
1.285714 2.056250 0.0
1.328571 2.056250 0.0
1.371429 2.056250 0.0
1.414286 2.056250 0.0
1.457143 2.056250 0.0
1.500000 2.056250 0.0
0.000000 2.100000 0.0
0.042857 2.100000 0.0
0.085714 2.100000 0.0
0.128571 2.100000 0.0
0.171429 2.100000 0.0
0.214286 2.100000 0.0
0.257143 2.100000 0.0
0.300000 2.100000 0.0
0.342857 2.100000 0.0
0.385714 2.100000 0.0
0.428571 2.100000 0.0
0.471429 2.100000 0.0
0.514286 2.100000 0.0
0.557143 2.100000 0.0
0.600000 2.100000 0.0
0.642857 2.100000 0.0
0.685714 2.100000 0.0
0.728571 2.100000 0.0
0.771429 2.100000 0.0
0.814286 2.100000 0.0
0.857143 2.100000 0.0
0.900000 2.100000 0.0
0.942857 2.100000 0.0
0.985714 2.100000 0.0
1.028571 2.100000 0.0
1.071429 2.100000 0.0
1.114286 2.100000 0.0
1.157143 2.100000 0.0
1.200000 2.100000 0.0
1.242857 2.100000 0.0
1.285714 2.100000 0.0
1.328571 2.100000 0.0
1.371429 2.100000 0.0
1.414286 2.100000 0.0
1.457143 2.100000 0.0
1.500000 2.100000 0.0
0.000000 2.143750 0.0
0.042857 2.143750 0.0
0.085714 2.143750 0.0
0.128571 2.143750 0.0
0.171429 2.143750 0.0
0.214286 2.143750 0.0
0.257143 2.143750 0.0
0.300000 2.143750 0.0
0.342857 2.143750 0.0
0.385714 2.143750 0.0
0.428571 2.143750 0.0
0.471429 2.143750 0.0
0.514286 2.143750 0.0
0.557143 2.143750 0.0
0.600000 2.143750 0.0
0.642857 2.143750 0.0
0.685714 2.143750 0.0
0.728571 2.143750 0.0
0.771429 2.143750 0.0
0.814286 2.143750 0.0
0.857143 2.143750 0.0
0.900000 2.143750 0.0
0.942857 2.143750 0.0
0.985714 2.143750 0.0
1.028571 2.143750 0.0
1.071429 2.143750 0.0
1.114286 2.143750 0.0
1.157143 2.143750 0.0
1.200000 2.143750 0.0
1.242857 2.143750 0.0
1.285714 2.143750 0.0
1.328571 2.143750 0.0
1.371429 2.143750 0.0
1.414286 2.143750 0.0
1.457143 2.143750 0.0
1.500000 2.143750 0.0
0.000000 2.187500 0.0
0.042857 2.187500 0.0
0.085714 2.187500 0.0
0.128571 2.187500 0.0
0.171429 2.187500 0.0
0.214286 2.187500 0.0
0.257143 2.187500 0.0
0.300000 2.187500 0.0
0.342857 2.187500 0.0
0.385714 2.187500 0.0
0.428571 2.187500 0.0
0.471429 2.187500 0.0
0.514286 2.187500 0.0
0.557143 2.187500 0.0
0.600000 2.187500 0.0
0.642857 2.187500 0.0
0.685714 2.187500 0.0
0.728571 2.187500 0.0
0.771429 2.187500 0.0
0.814286 2.187500 0.0
0.857143 2.187500 0.0
0.900000 2.187500 0.0
0.942857 2.187500 0.0
0.985714 2.187500 0.0
1.028571 2.187500 0.0
1.071429 2.187500 0.0
1.114286 2.187500 0.0
1.157143 2.187500 0.0
1.200000 2.187500 0.0
1.242857 2.187500 0.0
1.285714 2.187500 0.0
1.328571 2.187500 0.0
1.371429 2.187500 0.0
1.414286 2.187500 0.0
1.457143 2.187500 0.0
1.500000 2.187500 0.0
0.000000 2.231250 0.0
0.042857 2.231250 0.0
0.085714 2.231250 0.0
0.128571 2.231250 0.0
0.171429 2.231250 0.0
0.214286 2.231250 0.0
0.257143 2.231250 0.0
0.300000 2.231250 0.0
0.342857 2.231250 0.0
0.385714 2.231250 0.0
0.428571 2.231250 0.0
0.471429 2.231250 0.0
0.514286 2.231250 0.0
0.557143 2.231250 0.0
0.600000 2.231250 0.0
0.642857 2.231250 0.0
0.685714 2.231250 0.0
0.728571 2.231250 0.0
0.771429 2.231250 0.0
0.814286 2.231250 0.0
0.857143 2.231250 0.0
0.900000 2.231250 0.0
0.942857 2.231250 0.0
0.985714 2.231250 0.0
1.028571 2.231250 0.0
1.071429 2.231250 0.0
1.114286 2.231250 0.0
1.157143 2.231250 0.0
1.200000 2.231250 0.0
1.242857 2.231250 0.0
1.285714 2.231250 0.0
1.328571 2.231250 0.0
1.371429 2.231250 0.0
1.414286 2.231250 0.0
1.457143 2.231250 0.0
1.500000 2.231250 0.0
0.000000 2.275000 0.0
0.042857 2.275000 0.0
0.085714 2.275000 0.0
0.128571 2.275000 0.0
0.171429 2.275000 0.0
0.214286 2.275000 0.0
0.257143 2.275000 0.0
0.300000 2.275000 0.0
0.342857 2.275000 0.0
0.385714 2.275000 0.0
0.428571 2.275000 0.0
0.471429 2.275000 0.0
0.514286 2.275000 0.0
0.557143 2.275000 0.0
0.600000 2.275000 0.0
0.642857 2.275000 0.0
0.685714 2.275000 0.0
0.728571 2.275000 0.0
0.771429 2.275000 0.0
0.814286 2.275000 0.0
0.857143 2.275000 0.0
0.900000 2.275000 0.0
0.942857 2.275000 0.0
0.985714 2.275000 0.0
1.028571 2.275000 0.0
1.071429 2.275000 0.0
1.114286 2.275000 0.0
1.157143 2.275000 0.0
1.200000 2.275000 0.0
1.242857 2.275000 0.0
1.285714 2.275000 0.0
1.328571 2.275000 0.0
1.371429 2.275000 0.0
1.414286 2.275000 0.0
1.457143 2.275000 0.0
1.500000 2.275000 0.0
0.000000 2.318750 0.0
0.042857 2.318750 0.0
0.085714 2.318750 0.0
0.128571 2.318750 0.0
0.171429 2.318750 0.0
0.214286 2.318750 0.0
0.257143 2.318750 0.0
0.300000 2.318750 0.0
0.342857 2.318750 0.0
0.385714 2.318750 0.0
0.428571 2.318750 0.0
0.471429 2.318750 0.0
0.514286 2.318750 0.0
0.557143 2.318750 0.0
0.600000 2.318750 0.0
0.642857 2.318750 0.0
0.685714 2.318750 0.0
0.728571 2.318750 0.0
0.771429 2.318750 0.0
0.814286 2.318750 0.0
0.857143 2.318750 0.0
0.900000 2.318750 0.0
0.942857 2.318750 0.0
0.985714 2.318750 0.0
1.028571 2.318750 0.0
1.071429 2.318750 0.0
1.114286 2.318750 0.0
1.157143 2.318750 0.0
1.200000 2.318750 0.0
1.242857 2.318750 0.0
1.285714 2.318750 0.0
1.328571 2.318750 0.0
1.371429 2.318750 0.0
1.414286 2.318750 0.0
1.457143 2.318750 0.0
1.500000 2.318750 0.0
0.000000 2.362500 0.0
0.042857 2.362500 0.0
0.085714 2.362500 0.0
0.128571 2.362500 0.0
0.171429 2.362500 0.0
0.214286 2.362500 0.0
0.257143 2.362500 0.0
0.300000 2.362500 0.0
0.342857 2.362500 0.0
0.385714 2.362500 0.0
0.428571 2.362500 0.0
0.471429 2.362500 0.0
0.514286 2.362500 0.0
0.557143 2.362500 0.0
0.600000 2.362500 0.0
0.642857 2.362500 0.0
0.685714 2.362500 0.0
0.728571 2.362500 0.0
0.771429 2.362500 0.0
0.814286 2.362500 0.0
0.857143 2.362500 0.0
0.900000 2.362500 0.0
0.942857 2.362500 0.0
0.985714 2.362500 0.0
1.028571 2.362500 0.0
1.071429 2.362500 0.0
1.114286 2.362500 0.0
1.157143 2.362500 0.0
1.200000 2.362500 0.0
1.242857 2.362500 0.0
1.285714 2.362500 0.0
1.328571 2.362500 0.0
1.371429 2.362500 0.0
1.414286 2.362500 0.0
1.457143 2.362500 0.0
1.500000 2.362500 0.0
0.000000 2.406250 0.0
0.042857 2.406250 0.0
0.085714 2.406250 0.0
0.128571 2.406250 0.0
0.171429 2.406250 0.0
0.214286 2.406250 0.0
0.257143 2.406250 0.0
0.300000 2.406250 0.0
0.342857 2.406250 0.0
0.385714 2.406250 0.0
0.428571 2.406250 0.0
0.471429 2.406250 0.0
0.514286 2.406250 0.0
0.557143 2.406250 0.0
0.600000 2.406250 0.0
0.642857 2.406250 0.0
0.685714 2.406250 0.0
0.728571 2.406250 0.0
0.771429 2.406250 0.0
0.814286 2.406250 0.0
0.857143 2.406250 0.0
0.900000 2.406250 0.0
0.942857 2.406250 0.0
0.985714 2.406250 0.0
1.028571 2.406250 0.0
1.071429 2.406250 0.0
1.114286 2.406250 0.0
1.157143 2.406250 0.0
1.200000 2.406250 0.0
1.242857 2.406250 0.0
1.285714 2.406250 0.0
1.328571 2.406250 0.0
1.371429 2.406250 0.0
1.414286 2.406250 0.0
1.457143 2.406250 0.0
1.500000 2.406250 0.0
0.000000 2.450000 0.0
0.042857 2.450000 0.0
0.085714 2.450000 0.0
0.128571 2.450000 0.0
0.171429 2.450000 0.0
0.214286 2.450000 0.0
0.257143 2.450000 0.0
0.300000 2.450000 0.0
0.342857 2.450000 0.0
0.385714 2.450000 0.0
0.428571 2.450000 0.0
0.471429 2.450000 0.0
0.514286 2.450000 0.0
0.557143 2.450000 0.0
0.600000 2.450000 0.0
0.642857 2.450000 0.0
0.685714 2.450000 0.0
0.728571 2.450000 0.0
0.771429 2.450000 0.0
0.814286 2.450000 0.0
0.857143 2.450000 0.0
0.900000 2.450000 0.0
0.942857 2.450000 0.0
0.985714 2.450000 0.0
1.028571 2.450000 0.0
1.071429 2.450000 0.0
1.114286 2.450000 0.0
1.157143 2.450000 0.0
1.200000 2.450000 0.0
1.242857 2.450000 0.0
1.285714 2.450000 0.0
1.328571 2.450000 0.0
1.371429 2.450000 0.0
1.414286 2.450000 0.0
1.457143 2.450000 0.0
1.500000 2.450000 0.0
0.000000 2.493750 0.0
0.042857 2.493750 0.0
0.085714 2.493750 0.0
0.128571 2.493750 0.0
0.171429 2.493750 0.0
0.214286 2.493750 0.0
0.257143 2.493750 0.0
0.300000 2.493750 0.0
0.342857 2.493750 0.0
0.385714 2.493750 0.0
0.428571 2.493750 0.0
0.471429 2.493750 0.0
0.514286 2.493750 0.0
0.557143 2.493750 0.0
0.600000 2.493750 0.0
0.642857 2.493750 0.0
0.685714 2.493750 0.0
0.728571 2.493750 0.0
0.771429 2.493750 0.0
0.814286 2.493750 0.0
0.857143 2.493750 0.0
0.900000 2.493750 0.0
0.942857 2.493750 0.0
0.985714 2.493750 0.0
1.028571 2.493750 0.0
1.071429 2.493750 0.0
1.114286 2.493750 0.0
1.157143 2.493750 0.0
1.200000 2.493750 0.0
1.242857 2.493750 0.0
1.285714 2.493750 0.0
1.328571 2.493750 0.0
1.371429 2.493750 0.0
1.414286 2.493750 0.0
1.457143 2.493750 0.0
1.500000 2.493750 0.0
0.000000 2.537500 0.0
0.042857 2.537500 0.0
0.085714 2.537500 0.0
0.128571 2.537500 0.0
0.171429 2.537500 0.0
0.214286 2.537500 0.0
0.257143 2.537500 0.0
0.300000 2.537500 0.0
0.342857 2.537500 0.0
0.385714 2.537500 0.0
0.428571 2.537500 0.0
0.471429 2.537500 0.0
0.514286 2.537500 0.0
0.557143 2.537500 0.0
0.600000 2.537500 0.0
0.642857 2.537500 0.0
0.685714 2.537500 0.0
0.728571 2.537500 0.0
0.771429 2.537500 0.0
0.814286 2.537500 0.0
0.857143 2.537500 0.0
0.900000 2.537500 0.0
0.942857 2.537500 0.0
0.985714 2.537500 0.0
1.028571 2.537500 0.0
1.071429 2.537500 0.0
1.114286 2.537500 0.0
1.157143 2.537500 0.0
1.200000 2.537500 0.0
1.242857 2.537500 0.0
1.285714 2.537500 0.0
1.328571 2.537500 0.0
1.371429 2.537500 0.0
1.414286 2.537500 0.0
1.457143 2.537500 0.0
1.500000 2.537500 0.0
0.000000 2.581250 0.0
0.042857 2.581250 0.0
0.085714 2.581250 0.0
0.128571 2.581250 0.0
0.171429 2.581250 0.0
0.214286 2.581250 0.0
0.257143 2.581250 0.0
0.300000 2.581250 0.0
0.342857 2.581250 0.0
0.385714 2.581250 0.0
0.428571 2.581250 0.0
0.471429 2.581250 0.0
0.514286 2.581250 0.0
0.557143 2.581250 0.0
0.600000 2.581250 0.0
0.642857 2.581250 0.0
0.685714 2.581250 0.0
0.728571 2.581250 0.0
0.771429 2.581250 0.0
0.814286 2.581250 0.0
0.857143 2.581250 0.0
0.900000 2.581250 0.0
0.942857 2.581250 0.0
0.985714 2.581250 0.0
1.028571 2.581250 0.0
1.071429 2.581250 0.0
1.114286 2.581250 0.0
1.157143 2.581250 0.0
1.200000 2.581250 0.0
1.242857 2.581250 0.0
1.285714 2.581250 0.0
1.328571 2.581250 0.0
1.371429 2.581250 0.0
1.414286 2.581250 0.0
1.457143 2.581250 0.0
1.500000 2.581250 0.0
0.000000 2.625000 0.0
0.042857 2.625000 0.0
0.085714 2.625000 0.0
0.128571 2.625000 0.0
0.171429 2.625000 0.0
0.214286 2.625000 0.0
0.257143 2.625000 0.0
0.300000 2.625000 0.0
0.342857 2.625000 0.0
0.385714 2.625000 0.0
0.428571 2.625000 0.0
0.471429 2.625000 0.0
0.514286 2.625000 0.0
0.557143 2.625000 0.0
0.600000 2.625000 0.0
0.642857 2.625000 0.0
0.685714 2.625000 0.0
0.728571 2.625000 0.0
0.771429 2.625000 0.0
0.814286 2.625000 0.0
0.857143 2.625000 0.0
0.900000 2.625000 0.0
0.942857 2.625000 0.0
0.985714 2.625000 0.0
1.028571 2.625000 0.0
1.071429 2.625000 0.0
1.114286 2.625000 0.0
1.157143 2.625000 0.0
1.200000 2.625000 0.0
1.242857 2.625000 0.0
1.285714 2.625000 0.0
1.328571 2.625000 0.0
1.371429 2.625000 0.0
1.414286 2.625000 0.0
1.457143 2.625000 0.0
1.500000 2.625000 0.0
</DataArray></Points>
<PointData>
<DataArray NumberOfComponents="1" format="ascii" type ="Float32" Name="phi">
0.737669
0.748690
0.748887
0.749146
0.749238
0.743787
0.722913
0.686310
0.643753
0.600898
0.558051
0.515208
0.472367
0.429529
0.386695
0.343867
0.301046
0.258233
0.215428
0.172633
0.129850
0.087076
0.044304
0.002437
-0.039067
-0.081291
-0.123801
-0.166279
-0.208641
-0.250986
-0.293104
-0.334665
-0.374876
-0.412009
-0.442708
-0.455718
0.704856
0.704941
0.705140
0.705401
0.705736
0.705942
0.700904
0.680959
0.645121
0.602768
0.559987
0.517236
0.474498
0.431775
0.389066
0.346377
0.303715
0.261086
0.218490
0.175939
0.133442
0.091002
0.048652
0.005896
-0.036969
-0.079423
-0.121713
-0.163708
-0.205280
-0.246258
-0.286299
-0.324620
-0.359666
-0.389421
-0.412154
-0.423486
0.661107
0.661192
0.661392
0.661656
0.661993
0.662415
0.662777
0.658512
0.640273
0.605883
0.564055
0.521501
0.478984
0.436506
0.394068
0.351676
0.309346
0.267097
0.224935
0.182872
0.140937
0.099151
0.057581
0.015243
-0.028782
-0.071484
-0.112017
-0.152214
-0.191730
-0.230218
-0.267036
-0.300956
-0.330416
-0.354503
-0.372693
-0.381684
0.617357
0.617443
0.617645
0.617910
0.618250
0.618675
0.619202
0.619755
0.616593
0.600849
0.568797
0.527948
0.485751
0.443629
0.401580
0.359610
0.317747
0.276027
0.234464
0.193065
0.151873
0.110945
0.070342
0.029666
-0.014439
-0.057588
-0.096468
-0.134782
-0.172101
-0.207918
-0.241244
-0.270754
-0.295649
-0.316104
-0.331611
-0.339025
0.573607
0.573694
0.573897
0.574165
0.574506
0.574934
0.575464
0.576120
0.576888
0.575092
0.562563
0.533858
0.494612
0.452937
0.411383
0.369952
0.328674
0.287605
0.246784
0.206213
0.165927
0.126003
0.086483
0.047476
0.005509
-0.037771
-0.076816
-0.113090
-0.148141
-0.181070
-0.210736
-0.236351
-0.258030
-0.276248
-0.289817
-0.295945
0.529857
0.529945
0.530149
0.530418
0.530762
0.531192
0.531726
0.532385
0.533198
0.534189
0.533858
0.525224
0.501547
0.464820
0.423512
0.382669
0.342085
0.301760
0.261755
0.222075
0.182732
0.143791
0.105286
0.067272
0.028345
-0.014025
-0.053707
-0.088019
-0.120736
-0.150470
-0.176680
-0.199389
-0.218994
-0.235658
-0.247556
-0.252570
0.486107
0.486195
0.486401
0.486672
0.487018
0.487450
0.487986
0.488650
0.489467
0.490468
0.491688
0.492866
0.488290
0.469922
0.437068
0.397513
0.357673
0.318124
0.278905
0.240042
0.201561
0.163509
0.125946
0.088914
0.052593
0.013571
-0.025846
-0.060364
-0.090433
-0.116757
-0.140282
-0.161006
-0.179212
-0.194571
-0.204922
-0.209006
0.442357
0.442446
0.442653
0.442925
0.443273
0.443707
0.444246
0.444913
0.445735
0.446742
0.447970
0.449460
0.451228
0.449972
0.438098
0.411625
0.375350
0.336412
0.297805
0.259753
0.222145
0.185042
0.148556
0.112816
0.078068
0.043072
0.006787
-0.027926
-0.056712
-0.080758
-0.102560
-0.121801
-0.138957
-0.153069
-0.161981
-0.165352
0.398607
0.398696
0.398904
0.399178
0.399527
0.399963
0.400505
0.401175
0.402001
0.403014
0.404251
0.405752
0.407572
0.409780
0.411441
0.405685
0.387112
0.355891
0.318319
0.281114
0.244442
0.208408
0.173121
0.138758
0.105457
0.073274
0.041662
0.009973
-0.019038
-0.043493
-0.064103
-0.082028
-0.098367
-0.111189
-0.118784
-0.121667
0.354857
0.354947
0.355156
0.355430
0.355781
0.356219
0.356763
0.357436
0.358266
0.359285
0.360530
0.362042
0.363879
0.366112
0.368826
0.371730
0.371045
0.360034
0.336607
0.304081
0.268439
0.233559
0.199551
0.166629
0.134933
0.104558
0.075447
0.047469
0.021096
-0.002970
-0.023880
-0.041879
-0.057581
-0.068983
-0.075387
-0.077971
0.311107
0.311197
0.311407
0.311683
0.312034
0.312474
0.313020
0.313696
0.314530
0.315555
0.316808
0.318332
0.320185
0.322443
0.325181
0.328105
0.330787
0.332852
0.329038
0.315386
0.291698
0.260444
0.227819
0.196300
0.165964
0.136897
0.109087
0.083335
0.060185
0.038469
0.018278
0.000447
-0.014725
-0.025641
-0.031843
-0.034283
0.267357
0.267448
0.267658
0.267934
0.268287
0.268728
0.269276
0.269955
0.270793
0.271824
0.273084
0.274620
0.276490
0.278774
0.281535
0.284461
0.287125
0.289549
0.292007
0.293778
0.288986
0.275875
0.255135
0.227326
0.198189
0.170340
0.144078
0.119961
0.097985
0.077806
0.059593
0.043119
0.029128
0.018974
0.012898
0.010574
0.223608
0.223698
0.223909
0.224186
0.224540
0.224982
0.225532
0.226213
0.227056
0.228092
0.229360
0.230908
0.232795
0.235105
0.237888
0.240814
0.243460
0.245870
0.248331
0.250910
0.253612
0.256118
0.253049
0.242644
0.227111
0.204889
0.180098
0.157339
0.136401
0.117194
0.099822
0.084295
0.071735
0.062959
0.057590
0.055439
0.179858
0.179949
0.180160
0.180438
0.180792
0.181236
0.181787
0.182471
0.183317
0.184359
0.185636
0.187195
0.189100
0.191437
0.194241
0.197164
0.199792
0.202187
0.204654
0.207241
0.209954
0.212986
0.216438
0.220374
0.221314
0.215185
0.205860
0.193214
0.175318
0.156979
0.140419
0.125832
0.114224
0.106110
0.101142
0.099149
0.136108
0.136199
0.136411
0.136689
0.137045
0.137489
0.138042
0.138729
0.139578
0.140626
0.141910
0.143481
0.145404
0.147768
0.150592
0.153511
0.156120
0.158503
0.160975
0.163571
0.166296
0.169359
0.172850
0.176805
0.181255
0.186239
0.191771
0.193270
0.188334
0.181875
0.176246
0.167474
0.156907
0.149372
0.144746
0.142879
0.092358
0.092449
0.092662
0.092940
0.093297
0.093742
0.094297
0.094986
0.095839
0.096892
0.098185
0.099767
0.101709
0.104100
0.106943
0.109856
0.112447
0.114819
0.117297
0.119900
0.122640
0.125735
0.129265
0.133266
0.137771
0.142821
0.148502
0.154675
0.160106
0.165075
0.170253
0.171204
0.168617
0.166924
0.165991
0.165616
0.048606
0.048697
0.048909
0.049188
0.049544
0.049989
0.050544
0.051234
0.052090
0.053147
0.054446
0.056039
0.057998
0.060414
0.063271
0.066172
0.068749
0.071116
0.073612
0.076230
0.078985
0.082115
0.085685
0.089733
0.094296
0.099417
0.105178
0.111408
0.116748
0.121645
0.127117
0.132424
0.137189
0.141018
0.143572
0.144607
0.005002
0.005102
0.005343
0.005665
0.006067
0.006556
0.007152
0.007878
0.008767
0.009851
0.011172
0.012782
0.014752
0.017177
0.020069
0.022956
0.025424
0.027673
0.030027
0.032560
0.035332
0.038500
0.042112
0.046214
0.050844
0.056051
0.061905
0.068206
0.073425
0.078214
0.083723
0.088997
0.093672
0.097396
0.099862
0.100858
-0.038600
-0.038490
-0.038219
-0.037854
-0.037405
-0.036871
-0.036233
-0.035468
-0.034547
-0.033433
-0.032087
-0.030430
-0.028380
-0.025879
-0.022951
-0.020105
-0.017764
-0.015689
-0.013564
-0.011217
-0.008535
-0.005450
-0.001921
0.002100
0.006653
0.011788
0.017568
0.023840
0.029511
0.034787
0.040342
0.045583
0.050187
0.053829
0.056228
0.057193
-0.082350
-0.082240
-0.081968
-0.081602
-0.081153
-0.080617
-0.079978
-0.079210
-0.078284
-0.077165
-0.075810
-0.074110
-0.071971
-0.069380
-0.066446
-0.063645
-0.061340
-0.059320
-0.057265
-0.054996
-0.052399
-0.049404
-0.045963
-0.042027
-0.037554
-0.032538
-0.027075
-0.021287
-0.015494
-0.009926
-0.004548
0.000501
0.004933
0.008433
0.010737
0.011661
-0.115162
-0.125989
-0.125717
-0.125350
-0.124899
-0.124363
-0.123722
-0.122951
-0.122021
-0.120896
-0.119531
-0.117815
-0.115651
-0.113039
-0.110102
-0.107325
-0.105041
-0.103021
-0.100959
-0.098672
-0.096050
-0.093025
-0.089546
-0.085557
-0.081017
-0.075979
-0.070692
-0.065299
-0.059898
-0.054614
-0.049468
-0.044624
-0.040379
-0.037030
-0.034828
-0.033946
</DataArray>
<DataArray NumberOfComponents="1" format="ascii" type ="Float32" Name="u">
0.000000
-0.000272
-0.000272
-0.000281
-0.000303
-0.000343
-0.000406
-0.000496
-0.000619
-0.000781
-0.000994
-0.001270
-0.001629
-0.002094
-0.002695
-0.003465
-0.004434
-0.005624
-0.007035
-0.008619
-0.010228
-0.011465
-0.011520
-0.009597
-0.006528
-0.004967
-0.004212
-0.003758
-0.003351
-0.002896
-0.002377
-0.001806
-0.001204
-0.000588
0.000032
0.000644
-0.001048
-0.001048
-0.001066
-0.001098
-0.001152
-0.001234
-0.001350
-0.001508
-0.001715
-0.001981
-0.002319
-0.002745
-0.003279
-0.003947
-0.004774
-0.005790
-0.007014
-0.008462
-0.010127
-0.011976
-0.013903
-0.015591
-0.016209
-0.014328
-0.009113
-0.006825
-0.005600
-0.004734
-0.003979
-0.003255
-0.002539
-0.001832
-0.001139
-0.000464
0.000192
0.000827
-0.001828
-0.001828
-0.001849
-0.001897
-0.001978
-0.002099
-0.002266
-0.002489
-0.002775
-0.003136
-0.003588
-0.004146
-0.004831
-0.005667
-0.006675
-0.007877
-0.009289
-0.010918
-0.012760
-0.014793
-0.016952
-0.019019
-0.020302
-0.019079
-0.012713
-0.009356
-0.007305
-0.005843
-0.004672
-0.003654
-0.002733
-0.001885
-0.001096
-0.000358
0.000337
0.000999
-0.002580
-0.002580
-0.002604
-0.002664
-0.002768
-0.002923
-0.003135
-0.003414
-0.003769
-0.004212
-0.004758
-0.005422
-0.006224
-0.007183
-0.008318
-0.009644
-0.011172
-0.012909
-0.014852
-0.016989
-0.019284
-0.021600
-0.023435
-0.023234
-0.017998
-0.012511
-0.009293
-0.007149
-0.005517
-0.004175
-0.003023
-0.002011
-0.001111
-0.000298
0.000447
0.001141
-0.003284
-0.003284
-0.003312
-0.003382
-0.003505
-0.003688
-0.003938
-0.004262
-0.004672
-0.005178
-0.005793
-0.006532
-0.007412
-0.008446
-0.009651
-0.011038
-0.012615
-0.014389
-0.016359
-0.018524
-0.020870
-0.023332
-0.025615
-0.026594
-0.023565
-0.016299
-0.011769
-0.008792
-0.006611
-0.004886
-0.003462
-0.002257
-0.001221
-0.000315
0.000494
0.001237
-0.003929
-0.003929
-0.003960
-0.004039
-0.004177
-0.004381
-0.004658
-0.005016
-0.005463
-0.006010
-0.006668
-0.007450
-0.008367
-0.009432
-0.010655
-0.012045
-0.013609
-0.015353
-0.017283
-0.019402
-0.021714
-0.024210
-0.026771
-0.028746
-0.027925
-0.021382
-0.014885
-0.010865
-0.008030
-0.005855
-0.004112
-0.002678
-0.001477
-0.000450
0.000450
0.001269
-0.004506
-0.004506
-0.004540
-0.004626
-0.004773
-0.004991
-0.005285
-0.005662
-0.006130
-0.006697
-0.007373
-0.008166
-0.009085
-0.010140
-0.011337
-0.012682
-0.014182
-0.015841
-0.017669
-0.019673
-0.021869
-0.024271
-0.026867
-0.029385
-0.030412
-0.026678
-0.019196
-0.013477
-0.009905
-0.007199
-0.005058
-0.003348
-0.001944
-0.000754
0.000280
0.001220
-0.005009
-0.005009
-0.005045
-0.005135
-0.005288
-0.005512
-0.005813
-0.006196
-0.006669
-0.007237
-0.007907
-0.008686
-0.009579
-0.010593
-0.011730
-0.012995
-0.014392
-0.015925
-0.017603
-0.019437
-0.021445
-0.023652
-0.026087
-0.028691
-0.030771
-0.029911
-0.024272
-0.017400
-0.012438
-0.009043
-0.006427
-0.004378
-0.002702
-0.001282
-0.000054
0.001071
-0.005438
-0.005438
-0.005475
-0.005564
-0.005718
-0.005941
-0.006239
-0.006618
-0.007081
-0.007633
-0.008280
-0.009026
-0.009874
-0.010826
-0.011883
-0.013046
-0.014317
-0.015698
-0.017197
-0.018825
-0.020598
-0.022542
-0.024693
-0.027071
-0.029441
-0.030435
-0.027777
-0.022057
-0.016144
-0.011805
-0.008292
-0.005843
-0.003861
-0.002102
-0.000588
0.000806
-0.005793
-0.005793
-0.005829
-0.005916
-0.006065
-0.006281
-0.006569
-0.006932
-0.007375
-0.007900
-0.008512
-0.009212
-0.010002
-0.010881
-0.011849
-0.012902
-0.014039
-0.015260
-0.016570
-0.017978
-0.019497
-0.021149
-0.022965
-0.024982
-0.027159
-0.028899
-0.028493
-0.025067
-0.020051
-0.015247
-0.011174
-0.008115
-0.005572
-0.003170
-0.001296
0.000426
-0.006079
-0.006079
-0.006114
-0.006197
-0.006337
-0.006541
-0.006811
-0.007151
-0.007565
-0.008055
-0.008623
-0.009271
-0.009999
-0.010805
-0.011684
-0.012630
-0.013637
-0.014704
-0.015831
-0.017024
-0.018294
-0.019657
-0.021138
-0.022767
-0.024558
-0.026294
-0.027017
-0.025504
-0.022051
-0.017865
-0.014179
-0.010659
-0.007581
-0.004768
-0.002394
-0.000156
-0.006310
-0.006310
-0.006342
-0.006418
-0.006547
-0.006733
-0.006981
-0.007293
-0.007671
-0.008120
-0.008641
-0.009235
-0.009903
-0.010641
-0.011441
-0.012292
-0.013185
-0.014111
-0.015069
-0.016064
-0.017103
-0.018201
-0.019375
-0.020647
-0.022033
-0.023461
-0.024466
-0.024104
-0.021957
-0.018751
-0.015492
-0.012094
-0.008966
-0.006247
-0.003433
-0.000662
-0.006507
-0.006507
-0.006536
-0.006604
-0.006719
-0.006885
-0.007105
-0.007384
-0.007723
-0.008126
-0.008597
-0.009139
-0.009752
-0.010434
-0.011174
-0.011953
-0.012751
-0.013555
-0.014362
-0.015176
-0.016006
-0.016864
-0.017766
-0.018729
-0.019763
-0.020839
-0.021735
-0.021871
-0.020679
-0.018311
-0.015414
-0.012357
-0.009367
-0.006631
-0.003722
-0.000784
-0.006710
-0.006710
-0.006735
-0.006793
-0.006892
-0.007035
-0.007226
-0.007468
-0.007764
-0.008119
-0.008538
-0.009029
-0.009595
-0.010237
-0.010945
-0.011686
-0.012415
-0.013113
-0.013778
-0.014419
-0.015050
-0.015688
-0.016348
-0.017045
-0.017788
-0.018559
-0.019243
-0.019506
-0.018877
-0.017206
-0.014806
-0.012078
-0.009251
-0.006466
-0.003632
-0.000756
-0.006982
-0.006982
-0.007003
-0.007051
-0.007132
-0.007251
-0.007411
-0.007613
-0.007863
-0.008166
-0.008531
-0.008967
-0.009491
-0.010114
-0.010833
-0.011591
-0.012274
-0.012862
-0.013371
-0.013825
-0.014253
-0.014676
-0.015114
-0.015581
-0.016083
-0.016611
-0.017096
-0.017337
-0.016994
-0.015828
-0.013919
-0.011546
-0.008945
-0.006262
-0.003530
-0.000758
-0.007420
-0.007420
-0.007437
-0.007474
-0.007539
-0.007634
-0.007762
-0.007926
-0.008128
-0.008375
-0.008677
-0.009051
-0.009527
-0.010143
-0.010931
-0.011797
-0.012409
-0.012828
-0.013127
-0.013365
-0.013581
-0.013800
-0.014037
-0.014305
-0.014610
-0.014950
-0.015285
-0.015483
-0.015275
-0.014432
-0.012917
-0.010887
-0.008540
-0.006028
-0.003430
-0.000783
-0.008164
-0.008164
-0.008177
-0.008205
-0.008255
-0.008330
-0.008430
-0.008557
-0.008713
-0.008902
-0.009135
-0.009430
-0.009827
-0.010405