<VTKFile type="StructuredGrid" version="0.1" byte_order="LittleEndian">
<StructuredGrid WholeExtent="1 71 1 81 0 0">
<Piece Extent="36 71 61 81 0 0">
<PointData></PointData>
<CellData></CellData>
<Points>
<DataArray NumberOfComponents="3" format="ascii" type ="Float32" Name="mesh">
1.500000 2.625000 0.0
1.542857 2.625000 0.0
1.585714 2.625000 0.0
1.628571 2.625000 0.0
1.671429 2.625000 0.0
1.714286 2.625000 0.0
1.757143 2.625000 0.0
1.800000 2.625000 0.0
1.842857 2.625000 0.0
1.885714 2.625000 0.0
1.928571 2.625000 0.0
1.971429 2.625000 0.0
2.014286 2.625000 0.0
2.057143 2.625000 0.0
2.100000 2.625000 0.0
2.142857 2.625000 0.0
2.185714 2.625000 0.0
2.228571 2.625000 0.0
2.271429 2.625000 0.0
2.314286 2.625000 0.0
2.357143 2.625000 0.0
2.400000 2.625000 0.0
2.442857 2.625000 0.0
2.485714 2.625000 0.0
2.528571 2.625000 0.0
2.571429 2.625000 0.0
2.614286 2.625000 0.0
2.657143 2.625000 0.0
2.700000 2.625000 0.0
2.742857 2.625000 0.0
2.785714 2.625000 0.0
2.828571 2.625000 0.0
2.871429 2.625000 0.0
2.914286 2.625000 0.0
2.957143 2.625000 0.0
3.000000 2.625000 0.0
1.500000 2.668750 0.0
1.542857 2.668750 0.0
1.585714 2.668750 0.0
1.628571 2.668750 0.0
1.671429 2.668750 0.0
1.714286 2.668750 0.0
1.757143 2.668750 0.0
1.800000 2.668750 0.0
1.842857 2.668750 0.0
1.885714 2.668750 0.0
1.928571 2.668750 0.0
1.971429 2.668750 0.0
2.014286 2.668750 0.0
2.057143 2.668750 0.0
2.100000 2.668750 0.0
2.142857 2.668750 0.0
2.185714 2.668750 0.0
2.228571 2.668750 0.0
2.271429 2.668750 0.0
2.314286 2.668750 0.0
2.357143 2.668750 0.0
2.400000 2.668750 0.0
2.442857 2.668750 0.0
2.485714 2.668750 0.0
2.528571 2.668750 0.0
2.571429 2.668750 0.0
2.614286 2.668750 0.0
2.657143 2.668750 0.0
2.700000 2.668750 0.0
2.742857 2.668750 0.0
2.785714 2.668750 0.0
2.828571 2.668750 0.0
2.871429 2.668750 0.0
2.914286 2.668750 0.0
2.957143 2.668750 0.0
3.000000 2.668750 0.0
1.500000 2.712500 0.0
1.542857 2.712500 0.0
1.585714 2.712500 0.0
1.628571 2.712500 0.0
1.671429 2.712500 0.0
1.714286 2.712500 0.0
1.757143 2.712500 0.0
1.800000 2.712500 0.0
1.842857 2.712500 0.0
1.885714 2.712500 0.0
1.928571 2.712500 0.0
1.971429 2.712500 0.0
2.014286 2.712500 0.0
2.057143 2.712500 0.0
2.100000 2.712500 0.0
2.142857 2.712500 0.0
2.185714 2.712500 0.0
2.228571 2.712500 0.0
2.271429 2.712500 0.0
2.314286 2.712500 0.0
2.357143 2.712500 0.0
2.400000 2.712500 0.0
2.442857 2.712500 0.0
2.485714 2.712500 0.0
2.528571 2.712500 0.0
2.571429 2.712500 0.0
2.614286 2.712500 0.0
2.657143 2.712500 0.0
2.700000 2.712500 0.0
2.742857 2.712500 0.0
2.785714 2.712500 0.0
2.828571 2.712500 0.0
2.871429 2.712500 0.0
2.914286 2.712500 0.0
2.957143 2.712500 0.0
3.000000 2.712500 0.0
1.500000 2.756250 0.0
1.542857 2.756250 0.0
1.585714 2.756250 0.0
1.628571 2.756250 0.0
1.671429 2.756250 0.0
1.714286 2.756250 0.0
1.757143 2.756250 0.0
1.800000 2.756250 0.0
1.842857 2.756250 0.0
1.885714 2.756250 0.0
1.928571 2.756250 0.0
1.971429 2.756250 0.0
2.014286 2.756250 0.0
2.057143 2.756250 0.0
2.100000 2.756250 0.0
2.142857 2.756250 0.0
2.185714 2.756250 0.0
2.228571 2.756250 0.0
2.271429 2.756250 0.0
2.314286 2.756250 0.0
2.357143 2.756250 0.0
2.400000 2.756250 0.0
2.442857 2.756250 0.0
2.485714 2.756250 0.0
2.528571 2.756250 0.0
2.571429 2.756250 0.0
2.614286 2.756250 0.0
2.657143 2.756250 0.0
2.700000 2.756250 0.0
2.742857 2.756250 0.0
2.785714 2.756250 0.0
2.828571 2.756250 0.0
2.871429 2.756250 0.0
2.914286 2.756250 0.0
2.957143 2.756250 0.0
3.000000 2.756250 0.0
1.500000 2.800000 0.0
1.542857 2.800000 0.0
1.585714 2.800000 0.0
1.628571 2.800000 0.0
1.671429 2.800000 0.0
1.714286 2.800000 0.0
1.757143 2.800000 0.0
1.800000 2.800000 0.0
1.842857 2.800000 0.0
1.885714 2.800000 0.0
1.928571 2.800000 0.0
1.971429 2.800000 0.0
2.014286 2.800000 0.0
2.057143 2.800000 0.0
2.100000 2.800000 0.0
2.142857 2.800000 0.0
2.185714 2.800000 0.0
2.228571 2.800000 0.0
2.271429 2.800000 0.0
2.314286 2.800000 0.0
2.357143 2.800000 0.0
2.400000 2.800000 0.0
2.442857 2.800000 0.0
2.485714 2.800000 0.0
2.528571 2.800000 0.0
2.571429 2.800000 0.0
2.614286 2.800000 0.0
2.657143 2.800000 0.0
2.700000 2.800000 0.0
2.742857 2.800000 0.0
2.785714 2.800000 0.0
2.828571 2.800000 0.0
2.871429 2.800000 0.0
2.914286 2.800000 0.0
2.957143 2.800000 0.0
3.000000 2.800000 0.0
1.500000 2.843750 0.0
1.542857 2.843750 0.0
1.585714 2.843750 0.0
1.628571 2.843750 0.0
1.671429 2.843750 0.0
1.714286 2.843750 0.0
1.757143 2.843750 0.0
1.800000 2.843750 0.0
1.842857 2.843750 0.0
1.885714 2.843750 0.0
1.928571 2.843750 0.0
1.971429 2.843750 0.0
2.014286 2.843750 0.0
2.057143 2.843750 0.0
2.100000 2.843750 0.0
2.142857 2.843750 0.0
2.185714 2.843750 0.0
2.228571 2.843750 0.0
2.271429 2.843750 0.0
2.314286 2.843750 0.0
2.357143 2.843750 0.0
2.400000 2.843750 0.0
2.442857 2.843750 0.0
2.485714 2.843750 0.0
2.528571 2.843750 0.0
2.571429 2.843750 0.0
2.614286 2.843750 0.0
2.657143 2.843750 0.0
2.700000 2.843750 0.0
2.742857 2.843750 0.0
2.785714 2.843750 0.0
2.828571 2.843750 0.0
2.871429 2.843750 0.0
2.914286 2.843750 0.0
2.957143 2.843750 0.0
3.000000 2.843750 0.0
1.500000 2.887500 0.0
1.542857 2.887500 0.0
1.585714 2.887500 0.0
1.628571 2.887500 0.0
1.671429 2.887500 0.0
1.714286 2.887500 0.0
1.757143 2.887500 0.0
1.800000 2.887500 0.0
1.842857 2.887500 0.0
1.885714 2.887500 0.0
1.928571 2.887500 0.0
1.971429 2.887500 0.0
2.014286 2.887500 0.0
2.057143 2.887500 0.0
2.100000 2.887500 0.0
2.142857 2.887500 0.0
2.185714 2.887500 0.0
2.228571 2.887500 0.0
2.271429 2.887500 0.0
2.314286 2.887500 0.0
2.357143 2.887500 0.0
2.400000 2.887500 0.0
2.442857 2.887500 0.0
2.485714 2.887500 0.0
2.528571 2.887500 0.0
2.571429 2.887500 0.0
2.614286 2.887500 0.0
2.657143 2.887500 0.0
2.700000 2.887500 0.0
2.742857 2.887500 0.0
2.785714 2.887500 0.0
2.828571 2.887500 0.0
2.871429 2.887500 0.0
2.914286 2.887500 0.0
2.957143 2.887500 0.0
3.000000 2.887500 0.0
1.500000 2.931250 0.0
1.542857 2.931250 0.0
1.585714 2.931250 0.0
1.628571 2.931250 0.0
1.671429 2.931250 0.0
1.714286 2.931250 0.0
1.757143 2.931250 0.0
1.800000 2.931250 0.0
1.842857 2.931250 0.0
1.885714 2.931250 0.0
1.928571 2.931250 0.0
1.971429 2.931250 0.0
2.014286 2.931250 0.0
2.057143 2.931250 0.0
2.100000 2.931250 0.0
2.142857 2.931250 0.0
2.185714 2.931250 0.0
2.228571 2.931250 0.0
2.271429 2.931250 0.0
2.314286 2.931250 0.0
2.357143 2.931250 0.0
2.400000 2.931250 0.0
2.442857 2.931250 0.0
2.485714 2.931250 0.0
2.528571 2.931250 0.0
2.571429 2.931250 0.0
2.614286 2.931250 0.0
2.657143 2.931250 0.0
2.700000 2.931250 0.0
2.742857 2.931250 0.0
2.785714 2.931250 0.0
2.828571 2.931250 0.0
2.871429 2.931250 0.0
2.914286 2.931250 0.0
2.957143 2.931250 0.0
3.000000 2.931250 0.0
1.500000 2.975000 0.0
1.542857 2.975000 0.0
1.585714 2.975000 0.0
1.628571 2.975000 0.0
1.671429 2.975000 0.0
1.714286 2.975000 0.0
1.757143 2.975000 0.0
1.800000 2.975000 0.0
1.842857 2.975000 0.0
1.885714 2.975000 0.0
1.928571 2.975000 0.0
1.971429 2.975000 0.0
2.014286 2.975000 0.0
2.057143 2.975000 0.0
2.100000 2.975000 0.0
2.142857 2.975000 0.0
2.185714 2.975000 0.0
2.228571 2.975000 0.0
2.271429 2.975000 0.0
2.314286 2.975000 0.0
2.357143 2.975000 0.0
2.400000 2.975000 0.0
2.442857 2.975000 0.0
2.485714 2.975000 0.0
2.528571 2.975000 0.0
2.571429 2.975000 0.0
2.614286 2.975000 0.0
2.657143 2.975000 0.0
2.700000 2.975000 0.0
2.742857 2.975000 0.0
2.785714 2.975000 0.0
2.828571 2.975000 0.0
2.871429 2.975000 0.0
2.914286 2.975000 0.0
2.957143 2.975000 0.0
3.000000 2.975000 0.0
1.500000 3.018750 0.0
1.542857 3.018750 0.0
1.585714 3.018750 0.0
1.628571 3.018750 0.0
1.671429 3.018750 0.0
1.714286 3.018750 0.0
1.757143 3.018750 0.0
1.800000 3.018750 0.0
1.842857 3.018750 0.0
1.885714 3.018750 0.0
1.928571 3.018750 0.0
1.971429 3.018750 0.0
2.014286 3.018750 0.0
2.057143 3.018750 0.0
2.100000 3.018750 0.0
2.142857 3.018750 0.0
2.185714 3.018750 0.0
2.228571 3.018750 0.0
2.271429 3.018750 0.0
2.314286 3.018750 0.0
2.357143 3.018750 0.0
2.400000 3.018750 0.0
2.442857 3.018750 0.0
2.485714 3.018750 0.0
2.528571 3.018750 0.0
2.571429 3.018750 0.0
2.614286 3.018750 0.0
2.657143 3.018750 0.0
2.700000 3.018750 0.0
2.742857 3.018750 0.0
2.785714 3.018750 0.0
2.828571 3.018750 0.0
2.871429 3.018750 0.0
2.914286 3.018750 0.0
2.957143 3.018750 0.0
3.000000 3.018750 0.0
1.500000 3.062500 0.0
1.542857 3.062500 0.0
1.585714 3.062500 0.0
1.628571 3.062500 0.0
1.671429 3.062500 0.0
1.714286 3.062500 0.0
1.757143 3.062500 0.0
1.800000 3.062500 0.0
1.842857 3.062500 0.0
1.885714 3.062500 0.0
1.928571 3.062500 0.0
1.971429 3.062500 0.0
2.014286 3.062500 0.0
2.057143 3.062500 0.0
2.100000 3.062500 0.0
2.142857 3.062500 0.0
2.185714 3.062500 0.0
2.228571 3.062500 0.0
2.271429 3.062500 0.0
2.314286 3.062500 0.0
2.357143 3.062500 0.0
2.400000 3.062500 0.0
2.442857 3.062500 0.0
2.485714 3.062500 0.0
2.528571 3.062500 0.0
2.571429 3.062500 0.0
2.614286 3.062500 0.0
2.657143 3.062500 0.0
2.700000 3.062500 0.0
2.742857 3.062500 0.0
2.785714 3.062500 0.0
2.828571 3.062500 0.0
2.871429 3.062500 0.0
2.914286 3.062500 0.0
2.957143 3.062500 0.0
3.000000 3.062500 0.0
1.500000 3.106250 0.0
1.542857 3.106250 0.0
1.585714 3.106250 0.0
1.628571 3.106250 0.0
1.671429 3.106250 0.0
1.714286 3.106250 0.0
1.757143 3.106250 0.0
1.800000 3.106250 0.0
1.842857 3.106250 0.0
1.885714 3.106250 0.0
1.928571 3.106250 0.0
1.971429 3.106250 0.0
2.014286 3.106250 0.0
2.057143 3.106250 0.0
2.100000 3.106250 0.0
2.142857 3.106250 0.0
2.185714 3.106250 0.0
2.228571 3.106250 0.0
2.271429 3.106250 0.0
2.314286 3.106250 0.0
2.357143 3.106250 0.0
2.400000 3.106250 0.0
2.442857 3.106250 0.0
2.485714 3.106250 0.0
2.528571 3.106250 0.0
2.571429 3.106250 0.0
2.614286 3.106250 0.0
2.657143 3.106250 0.0
2.700000 3.106250 0.0
2.742857 3.106250 0.0
2.785714 3.106250 0.0
2.828571 3.106250 0.0
2.871429 3.106250 0.0
2.914286 3.106250 0.0
2.957143 3.106250 0.0
3.000000 3.106250 0.0
1.500000 3.150000 0.0
1.542857 3.150000 0.0
1.585714 3.150000 0.0
1.628571 3.150000 0.0
1.671429 3.150000 0.0
1.714286 3.150000 0.0
1.757143 3.150000 0.0
1.800000 3.150000 0.0
1.842857 3.150000 0.0
1.885714 3.150000 0.0
1.928571 3.150000 0.0
1.971429 3.150000 0.0
2.014286 3.150000 0.0
2.057143 3.150000 0.0
2.100000 3.150000 0.0
2.142857 3.150000 0.0
2.185714 3.150000 0.0
2.228571 3.150000 0.0
2.271429 3.150000 0.0
2.314286 3.150000 0.0
2.357143 3.150000 0.0
2.400000 3.150000 0.0
2.442857 3.150000 0.0
2.485714 3.150000 0.0
2.528571 3.150000 0.0
2.571429 3.150000 0.0
2.614286 3.150000 0.0
2.657143 3.150000 0.0
2.700000 3.150000 0.0
2.742857 3.150000 0.0
2.785714 3.150000 0.0
2.828571 3.150000 0.0
2.871429 3.150000 0.0
2.914286 3.150000 0.0
2.957143 3.150000 0.0
3.000000 3.150000 0.0
1.500000 3.193750 0.0
1.542857 3.193750 0.0
1.585714 3.193750 0.0
1.628571 3.193750 0.0
1.671429 3.193750 0.0
1.714286 3.193750 0.0
1.757143 3.193750 0.0
1.800000 3.193750 0.0
1.842857 3.193750 0.0
1.885714 3.193750 0.0
1.928571 3.193750 0.0
1.971429 3.193750 0.0
2.014286 3.193750 0.0
2.057143 3.193750 0.0
2.100000 3.193750 0.0
2.142857 3.193750 0.0
2.185714 3.193750 0.0
2.228571 3.193750 0.0
2.271429 3.193750 0.0
2.314286 3.193750 0.0
2.357143 3.193750 0.0
2.400000 3.193750 0.0
2.442857 3.193750 0.0
2.485714 3.193750 0.0
2.528571 3.193750 0.0
2.571429 3.193750 0.0
2.614286 3.193750 0.0
2.657143 3.193750 0.0
2.700000 3.193750 0.0
2.742857 3.193750 0.0
2.785714 3.193750 0.0
2.828571 3.193750 0.0
2.871429 3.193750 0.0
2.914286 3.193750 0.0
2.957143 3.193750 0.0
3.000000 3.193750 0.0
1.500000 3.237500 0.0
1.542857 3.237500 0.0
1.585714 3.237500 0.0
1.628571 3.237500 0.0
1.671429 3.237500 0.0
1.714286 3.237500 0.0
1.757143 3.237500 0.0
1.800000 3.237500 0.0
1.842857 3.237500 0.0
1.885714 3.237500 0.0
1.928571 3.237500 0.0
1.971429 3.237500 0.0
2.014286 3.237500 0.0
2.057143 3.237500 0.0
2.100000 3.237500 0.0
2.142857 3.237500 0.0
2.185714 3.237500 0.0
2.228571 3.237500 0.0
2.271429 3.237500 0.0
2.314286 3.237500 0.0
2.357143 3.237500 0.0
2.400000 3.237500 0.0
2.442857 3.237500 0.0
2.485714 3.237500 0.0
2.528571 3.237500 0.0
2.571429 3.237500 0.0
2.614286 3.237500 0.0
2.657143 3.237500 0.0
2.700000 3.237500 0.0
2.742857 3.237500 0.0
2.785714 3.237500 0.0
2.828571 3.237500 0.0
2.871429 3.237500 0.0
2.914286 3.237500 0.0
2.957143 3.237500 0.0
3.000000 3.237500 0.0
1.500000 3.281250 0.0
1.542857 3.281250 0.0
1.585714 3.281250 0.0
1.628571 3.281250 0.0
1.671429 3.281250 0.0
1.714286 3.281250 0.0
1.757143 3.281250 0.0
1.800000 3.281250 0.0
1.842857 3.281250 0.0
1.885714 3.281250 0.0
1.928571 3.281250 0.0
1.971429 3.281250 0.0
2.014286 3.281250 0.0
2.057143 3.281250 0.0
2.100000 3.281250 0.0
2.142857 3.281250 0.0
2.185714 3.281250 0.0
2.228571 3.281250 0.0
2.271429 3.281250 0.0
2.314286 3.281250 0.0
2.357143 3.281250 0.0
2.400000 3.281250 0.0
2.442857 3.281250 0.0
2.485714 3.281250 0.0
2.528571 3.281250 0.0
2.571429 3.281250 0.0
2.614286 3.281250 0.0
2.657143 3.281250 0.0
2.700000 3.281250 0.0
2.742857 3.281250 0.0
2.785714 3.281250 0.0
2.828571 3.281250 0.0
2.871429 3.281250 0.0
2.914286 3.281250 0.0
2.957143 3.281250 0.0
3.000000 3.281250 0.0
1.500000 3.325000 0.0
1.542857 3.325000 0.0
1.585714 3.325000 0.0
1.628571 3.325000 0.0
1.671429 3.325000 0.0
1.714286 3.325000 0.0
1.757143 3.325000 0.0
1.800000 3.325000 0.0
1.842857 3.325000 0.0
1.885714 3.325000 0.0
1.928571 3.325000 0.0
1.971429 3.325000 0.0
2.014286 3.325000 0.0
2.057143 3.325000 0.0
2.100000 3.325000 0.0
2.142857 3.325000 0.0
2.185714 3.325000 0.0
2.228571 3.325000 0.0
2.271429 3.325000 0.0
2.314286 3.325000 0.0
2.357143 3.325000 0.0
2.400000 3.325000 0.0
2.442857 3.325000 0.0
2.485714 3.325000 0.0
2.528571 3.325000 0.0
2.571429 3.325000 0.0
2.614286 3.325000 0.0
2.657143 3.325000 0.0
2.700000 3.325000 0.0
2.742857 3.325000 0.0
2.785714 3.325000 0.0
2.828571 3.325000 0.0
2.871429 3.325000 0.0
2.914286 3.325000 0.0
2.957143 3.325000 0.0
3.000000 3.325000 0.0
1.500000 3.368750 0.0
1.542857 3.368750 0.0
1.585714 3.368750 0.0
1.628571 3.368750 0.0
1.671429 3.368750 0.0
1.714286 3.368750 0.0
1.757143 3.368750 0.0
1.800000 3.368750 0.0
1.842857 3.368750 0.0
1.885714 3.368750 0.0
1.928571 3.368750 0.0
1.971429 3.368750 0.0
2.014286 3.368750 0.0
2.057143 3.368750 0.0
2.100000 3.368750 0.0
2.142857 3.368750 0.0
2.185714 3.368750 0.0
2.228571 3.368750 0.0
2.271429 3.368750 0.0
2.314286 3.368750 0.0
2.357143 3.368750 0.0
2.400000 3.368750 0.0
2.442857 3.368750 0.0
2.485714 3.368750 0.0
2.528571 3.368750 0.0
2.571429 3.368750 0.0
2.614286 3.368750 0.0
2.657143 3.368750 0.0
2.700000 3.368750 0.0
2.742857 3.368750 0.0
2.785714 3.368750 0.0
2.828571 3.368750 0.0
2.871429 3.368750 0.0
2.914286 3.368750 0.0
2.957143 3.368750 0.0
3.000000 3.368750 0.0
1.500000 3.412500 0.0
1.542857 3.412500 0.0
1.585714 3.412500 0.0
1.628571 3.412500 0.0
1.671429 3.412500 0.0
1.714286 3.412500 0.0
1.757143 3.412500 0.0
1.800000 3.412500 0.0
1.842857 3.412500 0.0
1.885714 3.412500 0.0
1.928571 3.412500 0.0
1.971429 3.412500 0.0
2.014286 3.412500 0.0
2.057143 3.412500 0.0
2.100000 3.412500 0.0
2.142857 3.412500 0.0
2.185714 3.412500 0.0
2.228571 3.412500 0.0
2.271429 3.412500 0.0
2.314286 3.412500 0.0
2.357143 3.412500 0.0
2.400000 3.412500 0.0
2.442857 3.412500 0.0
2.485714 3.412500 0.0
2.528571 3.412500 0.0
2.571429 3.412500 0.0
2.614286 3.412500 0.0
2.657143 3.412500 0.0
2.700000 3.412500 0.0
2.742857 3.412500 0.0
2.785714 3.412500 0.0
2.828571 3.412500 0.0
2.871429 3.412500 0.0
2.914286 3.412500 0.0
2.957143 3.412500 0.0
3.000000 3.412500 0.0
1.500000 3.456250 0.0
1.542857 3.456250 0.0
1.585714 3.456250 0.0
1.628571 3.456250 0.0
1.671429 3.456250 0.0
1.714286 3.456250 0.0
1.757143 3.456250 0.0
1.800000 3.456250 0.0
1.842857 3.456250 0.0
1.885714 3.456250 0.0
1.928571 3.456250 0.0
1.971429 3.456250 0.0
2.014286 3.456250 0.0
2.057143 3.456250 0.0
2.100000 3.456250 0.0
2.142857 3.456250 0.0
2.185714 3.456250 0.0
2.228571 3.456250 0.0
2.271429 3.456250 0.0
2.314286 3.456250 0.0
2.357143 3.456250 0.0
2.400000 3.456250 0.0
2.442857 3.456250 0.0
2.485714 3.456250 0.0
2.528571 3.456250 0.0
2.571429 3.456250 0.0
2.614286 3.456250 0.0
2.657143 3.456250 0.0
2.700000 3.456250 0.0
2.742857 3.456250 0.0
2.785714 3.456250 0.0
2.828571 3.456250 0.0
2.871429 3.456250 0.0
2.914286 3.456250 0.0
2.957143 3.456250 0.0
3.000000 3.456250 0.0
1.500000 3.500000 0.0
1.542857 3.500000 0.0
1.585714 3.500000 0.0
1.628571 3.500000 0.0
1.671429 3.500000 0.0
1.714286 3.500000 0.0
1.757143 3.500000 0.0
1.800000 3.500000 0.0
1.842857 3.500000 0.0
1.885714 3.500000 0.0
1.928571 3.500000 0.0
1.971429 3.500000 0.0
2.014286 3.500000 0.0
2.057143 3.500000 0.0
2.100000 3.500000 0.0
2.142857 3.500000 0.0
2.185714 3.500000 0.0
2.228571 3.500000 0.0
2.271429 3.500000 0.0
2.314286 3.500000 0.0
2.357143 3.500000 0.0
2.400000 3.500000 0.0
2.442857 3.500000 0.0
2.485714 3.500000 0.0
2.528571 3.500000 0.0
2.571429 3.500000 0.0
2.614286 3.500000 0.0
2.657143 3.500000 0.0
2.700000 3.500000 0.0
2.742857 3.500000 0.0
2.785714 3.500000 0.0
2.828571 3.500000 0.0
2.871429 3.500000 0.0
2.914286 3.500000 0.0
2.957143 3.500000 0.0
3.000000 3.500000 0.0
</DataArray></Points>
<PointData>
<DataArray NumberOfComponents="1" format="ascii" type ="Float32" Name="phi">
0.060082
0.059372
0.061854
0.067164
0.075594
0.082647
0.084236
0.077422
0.061905
0.041302
0.018658
-0.001099
-0.017043
-0.031152
-0.043295
-0.052510
-0.059965
-0.067945
-0.077014
-0.085719
-0.092650
-0.097625
-0.101121
-0.103463
-0.104888
-0.105616
-0.105878
-0.105945
-0.106240
-0.107578
-0.110710
-0.114912
-0.118776
-0.121729
-0.124220
-0.136403
0.094883
0.093925
0.092605
0.092345
0.090183
0.080287
0.064816
0.044363
0.020518
-0.002675
-0.024808
-0.043580
-0.059103
-0.072928
-0.085372
-0.095270
-0.103078
-0.110930
-0.119773
-0.128592
-0.135881
-0.141142
-0.144760
-0.147165
-0.148621
-0.149361
-0.149625
-0.149693
-0.149984
-0.151276
-0.154310
-0.158447
-0.162354
-0.165383
-0.167893
-0.169157
0.085689
0.084534
0.079593
0.074366
0.062677
0.043146
0.023804
0.002135
-0.021772
-0.044413
-0.065215
-0.083684
-0.099988
-0.114412
-0.127348
-0.137902
-0.146075
-0.153855
-0.162593
-0.171482
-0.179062
-0.184627
-0.188391
-0.190865
-0.192352
-0.193104
-0.193372
-0.193440
-0.193728
-0.194978
-0.197918
-0.201986
-0.205926
-0.209030
-0.211567
-0.212831
0.041971
0.041031
0.036238
0.029553
0.017505
-0.000152
-0.019418
-0.040910
-0.062025
-0.082628
-0.103716
-0.123243
-0.140556
-0.155723
-0.169195
-0.180409
-0.189033
-0.196809
-0.205432
-0.214343
-0.222183
-0.228071
-0.232011
-0.234560
-0.236081
-0.236846
-0.237118
-0.237186
-0.237472
-0.238684
-0.241533
-0.245538
-0.249504
-0.252672
-0.255241
-0.256506
-0.003387
-0.004167
-0.008743
-0.016812
-0.028549
-0.043807
-0.061047
-0.080199
-0.100560
-0.121092
-0.142000
-0.162200
-0.180631
-0.196761
-0.210879
-0.222779
-0.231923
-0.239782
-0.248299
-0.257184
-0.265247
-0.271468
-0.275619
-0.278251
-0.279809
-0.280588
-0.280863
-0.280932
-0.281217
-0.282394
-0.285154
-0.289101
-0.293087
-0.296310
-0.298915
-0.300183
-0.048716
-0.049439
-0.053695
-0.061098
-0.071279
-0.084748
-0.101007
-0.119357
-0.139190
-0.159525
-0.180245
-0.200752
-0.220122
-0.237384
-0.252350
-0.264986
-0.274717
-0.282762
-0.291193
-0.300013
-0.308253
-0.314814
-0.319212
-0.321938
-0.323535
-0.324328
-0.324607
-0.324679
-0.324962
-0.326106
-0.328781
-0.332666
-0.336664
-0.339942
-0.342589
-0.343862
-0.092397
-0.093070
-0.097008
-0.103913
-0.113496
-0.126047
-0.141331
-0.158816
-0.178018
-0.198042
-0.218558
-0.239146
-0.259121
-0.277480
-0.293510
-0.306996
-0.317394
-0.325708
-0.334081
-0.342838
-0.351212
-0.358107
-0.362784
-0.365621
-0.367260
-0.368069
-0.368352
-0.368425
-0.368707
-0.369821
-0.372414
-0.376233
-0.380236
-0.383570
-0.386262
-0.387542
-0.136121
-0.136747
-0.140421
-0.146895
-0.155918
-0.167644
-0.181994
-0.198605
-0.217108
-0.236706
-0.256977
-0.277537
-0.297827
-0.317058
-0.334233
-0.348736
-0.359931
-0.368601
-0.376954
-0.385664
-0.394135
-0.401342
-0.406327
-0.409299
-0.410984
-0.411809
-0.412097
-0.412172
-0.412453
-0.413539
-0.416053
-0.419804
-0.423806
-0.427193
-0.429934
-0.431223
-0.179860
-0.180442
-0.183886
-0.189973
-0.198493
-0.209507
-0.223002
-0.238746
-0.256493
-0.275571
-0.295522
-0.315982
-0.336419
-0.356217
-0.374427
-0.390093
-0.402279
-0.411446
-0.419829
-0.428497
-0.437034
-0.444519
-0.449833
-0.452970
-0.454707
-0.455549
-0.455842
-0.455919
-0.456198
-0.457258
-0.459696
-0.463379
-0.467376
-0.470814
-0.473604
-0.474904
-0.223612
-0.224155
-0.227393
-0.233134
-0.241200
-0.251590
-0.264320
-0.279239
-0.296204
-0.314688
-0.334233
-0.354514
-0.374978
-0.395078
-0.414104
-0.430970
-0.444362
-0.454214
-0.462704
-0.471341
-0.479916
-0.487641
-0.493297
-0.496633
-0.498428
-0.499289
-0.499588
-0.499666
-0.499944
-0.500979
-0.503344
-0.506959
-0.510947
-0.514432
-0.517274
-0.518586
-0.267373
-0.267884
-0.270938
-0.276364
-0.284013
-0.293848
-0.305891
-0.320041
-0.336239
-0.354080
-0.373143
-0.393146
-0.413528
-0.433779
-0.453386
-0.471337
-0.486088
-0.496857
-0.505566
-0.514194
-0.522787
-0.530713
-0.536717
-0.540286
-0.542149
-0.543029
-0.543333
-0.543413
-0.543690
-0.544702
-0.546996
-0.550542
-0.554519
-0.558048
-0.560941
-0.562267
-0.311144
-0.311626
-0.314516
-0.319656
-0.326926
-0.336259
-0.347677
-0.361120
-0.376579
-0.393759
-0.412283
-0.431901
-0.452119
-0.472429
-0.492396
-0.511213
-0.527341
-0.539273
-0.548385
-0.557046
-0.565657
-0.573745
-0.580092
-0.583926
-0.585867
-0.586769
-0.587078
-0.587160
-0.587436
-0.588426
-0.590651
-0.594130
-0.598090
-0.601660
-0.604607
-0.605949
-0.354926
-0.355381
-0.358122
-0.363009
-0.369937
-0.378818
-0.389678
-0.402484
-0.417239
-0.433745
-0.451675
-0.470812
-0.490787
-0.511063
-0.531198
-0.550616
-0.567996
-0.581328
-0.591128
-0.599892
-0.608527
-0.616744
-0.623419
-0.627545
-0.629583
-0.630509
-0.630824
-0.630908
-0.631182
-0.632152
-0.634312
-0.637722
-0.641662
-0.645270
-0.648270
-0.649629
-0.398717
-0.399145
-0.401754
-0.406414
-0.413030
-0.421507
-0.431875
-0.444108
-0.458197
-0.474023
-0.491320
-0.509922
-0.529572
-0.549725
-0.569890
-0.589641
-0.608012
-0.622904
-0.633740
-0.642717
-0.651391
-0.659710
-0.666690
-0.671134
-0.673297
-0.674248
-0.674570
-0.674655
-0.674929
-0.675879
-0.677976
-0.681317
-0.685233
-0.688876
-0.691931
-0.693309
-0.442514
-0.442921
-0.445410
-0.449860
-0.456185
-0.464294
-0.474217
-0.485922
-0.499383
-0.514552
-0.531241
-0.549306
-0.568542
-0.588466
-0.608551
-0.628426
-0.647473
-0.663895
-0.676096
-0.685497
-0.694247
-0.702650
-0.709904
-0.714687
-0.717006
-0.717988
-0.718315
-0.718403
-0.718675
-0.719607
-0.721644
-0.724917
-0.728804
-0.732478
-0.735588
-0.736987
-0.486317
-0.486706
-0.489087
-0.493340
-0.499391
-0.507160
-0.516668
-0.527883
-0.540772
-0.555340
-0.571481
-0.589010
-0.607728
-0.627291
-0.647207
-0.667103
-0.686560
-0.704269
-0.718042
-0.728195
-0.737092
-0.745576
-0.753069
-0.758201
-0.760711
-0.761727
-0.762061
-0.762150
-0.762422
-0.763336
-0.765316
-0.768520
-0.772377
-0.776077
-0.779241
-0.780663
-0.530124
-0.530499
-0.532781
-0.536849
-0.542647
-0.550103
-0.559226
-0.569988
-0.582363
-0.596393
-0.612011
-0.628973
-0.647096
-0.666196
-0.685889
-0.705762
-0.725457
-0.744105
-0.759497
-0.770752
-0.779909
-0.788489
-0.796192
-0.801676
-0.804409
-0.805466
-0.805807
-0.805898
-0.806169
-0.807066
-0.808991
-0.812127
-0.815950
-0.819672
-0.822889
-0.824337
-0.573937
-0.574297
-0.576486
-0.580389
-0.585959
-0.593128
-0.601893
-0.612232
-0.624133
-0.637658
-0.652741
-0.669117
-0.686625
-0.705208
-0.724622
-0.744450
-0.764295
-0.783554
-0.800410
-0.813040
-0.822673
-0.831386
-0.839281
-0.845114
-0.848099
-0.849204
-0.849553
-0.849646
-0.849915
-0.850797
-0.852670
-0.855740
-0.859526
-0.863263
-0.866532
-0.868008
-0.617755
-0.618099
-0.620202
-0.623954
-0.629319
-0.636223
-0.644654
-0.654602
-0.666064
-0.679098
-0.693632
-0.709419
-0.726330
-0.744389
-0.763479
-0.783220
-0.803140
-0.822742
-0.840739
-0.854894
-0.865338
-0.874261
-0.882338
-0.888513
-0.891774
-0.892942
-0.893299
-0.893394
-0.893662
-0.894529
-0.896354
-0.899357
-0.903108
-0.906857
-0.910170
-0.911674
-0.661576
-0.661906
-0.663926
-0.667541
-0.672713
-0.679368
-0.687490
-0.697082
-0.708142
-0.720697
-0.734679
-0.749892
-0.766254
-0.783818
-0.802545
-0.822115
-0.842010
-0.861768
-0.880558
-0.896250
-0.907838
-0.917101
-0.925368
-0.931868
-0.935428
-0.936679
-0.937046
-0.937142
-0.937409
-0.938262
-0.940041
-0.942980
-0.946697
-0.950455
-0.953806
-0.955337
-0.683488
-0.683810
-0.685791
-0.689339
-0.694418
-0.700952
-0.708925
-0.718348
-0.729214
-0.741534
-0.755241
-0.770174
-0.786277
-0.803606
-0.822140
-0.841600
-0.861455
-0.881258
-0.900363
-0.916805
-0.929038
-0.938511
-0.946876
-0.953535
-0.957249
-0.958547
-0.958919
-0.959016
-0.959283
-0.960129
-0.961886
-0.964792
-0.968493
-0.972254
-0.975623
-0.977167
</DataArray>
<DataArray NumberOfComponents="1" format="ascii" type ="Float32" Name="u">
-0.003681
-0.000102
0.003638
0.007567
0.011893
0.016844
0.022223
0.027461
0.031272
0.032443
0.031740
0.029922
0.028075
0.027009
0.025924
0.024664
0.023371
0.023213
0.023406
0.023305
0.022989
0.022536
0.021996
0.021398
0.020761
0.020098
0.019434
0.018821
0.018385
0.018357
0.018974
0.019529
0.019917
0.020153
0.020257
0.020257
-0.003458
0.000200
0.004025
0.008066
0.012417
0.017236
0.022157
0.026160
0.028604
0.028600
0.027626
0.026438
0.024983
0.024690
0.024098
0.023296
0.022686
0.022723
0.022820
0.022731
0.022471
0.022089
0.021622
0.021102
0.020556
0.020014
0.019524
0.019158
0.019017
0.019180
0.019593
0.019973
0.020253
0.020427
0.020498
0.020498
-0.003040
0.000677
0.004556
0.008619
0.012655
0.017091
0.021317
0.024087
0.025369
0.025359
0.024697
0.024190
0.023544
0.023289
0.022890
0.022463
0.022246
0.022293
0.022297
0.022168
0.021924
0.021594
0.021209
0.020795
0.020381
0.020004
0.019707
0.019544
0.019556
0.019738
0.020009
0.020254
0.020437
0.020548
0.020590
0.020590
-0.002377
0.001300
0.005120
0.009076
0.012801
0.016638
0.019936
0.022257
0.023086
0.023376
0.023147
0.022827
0.022512
0.022308
0.022061
0.021865
0.021800
0.021814
0.021763
0.021619
0.021400
0.021130
0.020833
0.020532
0.020252
0.020022
0.019874
0.019832
0.019900
0.020050
0.020226
0.020382
0.020496
0.020562
0.020584
0.020584
-0.001562
0.001945
0.005524
0.009157
0.012951
0.016302
0.018901
0.020912
0.021731
0.021978
0.021923
0.021768
0.021619
0.021498
0.021380
0.021311
0.021301
0.021293
0.021226
0.021097
0.020922
0.020720
0.020511
0.020312
0.020144
0.020025
0.019972
0.019989
0.020067
0.020180
0.020297
0.020396
0.020466
0.020504
0.020514
0.020514
-0.001055
0.002339
0.005743
0.009150
0.012797
0.015812
0.018109
0.019661
0.020432
0.020738
0.020820
0.020812
0.020787
0.020761
0.020744
0.020751
0.020769
0.020763
0.020710
0.020617
0.020496
0.020364
0.020234
0.020120
0.020036
0.019991
0.019992
0.020035
0.020107
0.020192
0.020272
0.020337
0.020380
0.020401
0.020404
0.020404
-0.000926
0.002439
0.005797
0.009124
0.012337
0.015028
0.017079
0.018433
0.019200
0.019597
0.019804
0.019922
0.020003
0.020069
0.020130
0.020191
0.020237
0.020253
0.020233
0.020185
0.020121
0.020052
0.019989
0.019941
0.019916
0.019919
0.019950
0.020002
0.020067
0.020134
0.020192
0.020237
0.020265
0.020277
0.020276
0.020276
-0.000879
0.002415
0.005675
0.008832
0.011742
0.014174
0.016021
0.017277
0.018067
0.018555
0.018873
0.019098
0.019273
0.019418
0.019543
0.019650
0.019730
0.019780
0.019801
0.019801
0.019790
0.019776
0.019766
0.019768
0.019785
0.019818
0.019866
0.019923
0.019982
0.020038
0.020084
0.020117
0.020137
0.020144
0.020141
0.020141
-0.000852
0.002330
0.005453
0.008419
0.011087
0.013306
0.015006
0.016214
0.017041
0.017611
0.018024
0.018341
0.018597
0.018810
0.018992
0.019142
0.019261
0.019350
0.019414
0.019460
0.019495
0.019527
0.019560
0.019598
0.019644
0.019698
0.019756
0.019816
0.019873
0.019923
0.019963
0.019990
0.020005
0.020010
0.020007
0.020007
-0.000826
0.002209
0.005170
0.007945
0.010411
0.012463
0.014062
0.015250
0.016117
0.016761
0.017255
0.017650
0.017976
0.018250
0.018481
0.018675
0.018834
0.018963
0.019068
0.019154
0.019230
0.019298
0.019364
0.019431
0.019498
0.019566
0.019633
0.019696
0.019752
0.019799
0.019836
0.019861
0.019874
0.019877
0.019874
0.019874
-0.000795
0.002071
0.004858
0.007452
0.009747
0.011669
0.013201
0.014383
0.015291
0.015997
0.016561
0.017023
0.017409
0.017735
0.018012
0.018247
0.018445
0.018611
0.018753
0.018875
0.018984
0.019082
0.019174
0.019262
0.019345
0.019424
0.019497
0.019563
0.019620
0.019667
0.019702
0.019725
0.019738
0.019741
0.019738
0.019738
-0.000760
0.001928
0.004540
0.006968
0.009119
0.010939
0.012424
0.013609
0.014552
0.015312
0.015934
0.016452
0.016889
0.017262
0.017580
0.017851
0.018084
0.018284
0.018457
0.018609
0.018745
0.018867
0.018979
0.019082
0.019177
0.019264
0.019342
0.019410
0.019468
0.019515
0.019550
0.019573
0.019585
0.019588
0.019585
0.019585
-0.000722
0.001791
0.004235
0.006510
0.008539
0.010278
0.011728
0.012917
0.013890
0.014692
0.015361
0.015925
0.016405
0.016816
0.017168
0.017472
0.017734
0.017961
0.018160
0.018335
0.018490
0.018630
0.018756
0.018870
0.018973
0.019065
0.019147
0.019217
0.019275
0.019321
0.019356
0.019378
0.019390
0.019393
0.019390
0.019390
-0.000682
0.001663
0.003950
0.006088
0.008010
0.009682
0.011101
0.012290
0.013285
0.014118
0.014822
0.015421
0.015932
0.016372
0.016751
0.017078
0.017361
0.017608
0.017824
0.018015
0.018183
0.018333
0.018468
0.018587
0.018694
0.018788
0.018869
0.018939
0.018995
0.019040
0.019072
0.019093
0.019104
0.019107
0.019104
0.019104
-0.000645
0.001545
0.003686
0.005699
0.007524
0.009132
0.010519
0.011701
0.012703
0.013554
0.014277
0.014896
0.015426
0.015882
0.016275
0.016614
0.016908
0.017164
0.017388
0.017584
0.017757
0.017909
0.018044
0.018163
0.018267
0.018358
0.018436
0.018500
0.018553
0.018593
0.018621
0.018639
0.018647
0.018648
0.018644
0.018644
-0.000611
0.001431
0.003432
0.005324
0.007054
0.008594
0.009938
0.011096
0.012088
0.012934
0.013658
0.014276
0.014806
0.015260
0.015650
0.015986
0.016276
0.016526
0.016744
0.016933
0.017098
0.017243
0.017369
0.017479
0.017574
0.017655
0.017723
0.017778
0.017821
0.017853
0.017874
0.017886
0.017889
0.017887
0.017882
0.017882
-0.000584
0.001307
0.003163
0.004925
0.006546
0.007999
0.009275
0.010382
0.011333
0.012145
0.012838
0.013428
0.013930
0.014357
0.014721
0.015031
0.015296