<VTKFile type="StructuredGrid" version="0.1" byte_order="LittleEndian">
<StructuredGrid WholeExtent="1 71 1 81 0 0">
<Piece Extent="1 36 1 21 0 0">
<PointData></PointData>
<CellData></CellData>
<Points>
<DataArray NumberOfComponents="3" format="ascii" type ="Float32" Name="mesh">
0.000000 0.000000 0.0
0.042857 0.000000 0.0
0.085714 0.000000 0.0
0.128571 0.000000 0.0
0.171429 0.000000 0.0
0.214286 0.000000 0.0
0.257143 0.000000 0.0
0.300000 0.000000 0.0
0.342857 0.000000 0.0
0.385714 0.000000 0.0
0.428571 0.000000 0.0
0.471429 0.000000 0.0
0.514286 0.000000 0.0
0.557143 0.000000 0.0
0.600000 0.000000 0.0
0.642857 0.000000 0.0
0.685714 0.000000 0.0
0.728571 0.000000 0.0
0.771429 0.000000 0.0
0.814286 0.000000 0.0
0.857143 0.000000 0.0
0.900000 0.000000 0.0
0.942857 0.000000 0.0
0.985714 0.000000 0.0
1.028571 0.000000 0.0
1.071429 0.000000 0.0
1.114286 0.000000 0.0
1.157143 0.000000 0.0
1.200000 0.000000 0.0
1.242857 0.000000 0.0
1.285714 0.000000 0.0
1.328571 0.000000 0.0
1.371429 0.000000 0.0
1.414286 0.000000 0.0
1.457143 0.000000 0.0
1.500000 0.000000 0.0
0.000000 0.043750 0.0
0.042857 0.043750 0.0
0.085714 0.043750 0.0
0.128571 0.043750 0.0
0.171429 0.043750 0.0
0.214286 0.043750 0.0
0.257143 0.043750 0.0
0.300000 0.043750 0.0
0.342857 0.043750 0.0
0.385714 0.043750 0.0
0.428571 0.043750 0.0
0.471429 0.043750 0.0
0.514286 0.043750 0.0
0.557143 0.043750 0.0
0.600000 0.043750 0.0
0.642857 0.043750 0.0
0.685714 0.043750 0.0
0.728571 0.043750 0.0
0.771429 0.043750 0.0
0.814286 0.043750 0.0
0.857143 0.043750 0.0
0.900000 0.043750 0.0
0.942857 0.043750 0.0
0.985714 0.043750 0.0
1.028571 0.043750 0.0
1.071429 0.043750 0.0
1.114286 0.043750 0.0
1.157143 0.043750 0.0
1.200000 0.043750 0.0
1.242857 0.043750 0.0
1.285714 0.043750 0.0
1.328571 0.043750 0.0
1.371429 0.043750 0.0
1.414286 0.043750 0.0
1.457143 0.043750 0.0
1.500000 0.043750 0.0
0.000000 0.087500 0.0
0.042857 0.087500 0.0
0.085714 0.087500 0.0
0.128571 0.087500 0.0
0.171429 0.087500 0.0
0.214286 0.087500 0.0
0.257143 0.087500 0.0
0.300000 0.087500 0.0
0.342857 0.087500 0.0
0.385714 0.087500 0.0
0.428571 0.087500 0.0
0.471429 0.087500 0.0
0.514286 0.087500 0.0
0.557143 0.087500 0.0
0.600000 0.087500 0.0
0.642857 0.087500 0.0
0.685714 0.087500 0.0
0.728571 0.087500 0.0
0.771429 0.087500 0.0
0.814286 0.087500 0.0
0.857143 0.087500 0.0
0.900000 0.087500 0.0
0.942857 0.087500 0.0
0.985714 0.087500 0.0
1.028571 0.087500 0.0
1.071429 0.087500 0.0
1.114286 0.087500 0.0
1.157143 0.087500 0.0
1.200000 0.087500 0.0
1.242857 0.087500 0.0
1.285714 0.087500 0.0
1.328571 0.087500 0.0
1.371429 0.087500 0.0
1.414286 0.087500 0.0
1.457143 0.087500 0.0
1.500000 0.087500 0.0
0.000000 0.131250 0.0
0.042857 0.131250 0.0
0.085714 0.131250 0.0
0.128571 0.131250 0.0
0.171429 0.131250 0.0
0.214286 0.131250 0.0
0.257143 0.131250 0.0
0.300000 0.131250 0.0
0.342857 0.131250 0.0
0.385714 0.131250 0.0
0.428571 0.131250 0.0
0.471429 0.131250 0.0
0.514286 0.131250 0.0
0.557143 0.131250 0.0
0.600000 0.131250 0.0
0.642857 0.131250 0.0
0.685714 0.131250 0.0
0.728571 0.131250 0.0
0.771429 0.131250 0.0
0.814286 0.131250 0.0
0.857143 0.131250 0.0
0.900000 0.131250 0.0
0.942857 0.131250 0.0
0.985714 0.131250 0.0
1.028571 0.131250 0.0
1.071429 0.131250 0.0
1.114286 0.131250 0.0
1.157143 0.131250 0.0
1.200000 0.131250 0.0
1.242857 0.131250 0.0
1.285714 0.131250 0.0
1.328571 0.131250 0.0
1.371429 0.131250 0.0
1.414286 0.131250 0.0
1.457143 0.131250 0.0
1.500000 0.131250 0.0
0.000000 0.175000 0.0
0.042857 0.175000 0.0
0.085714 0.175000 0.0
0.128571 0.175000 0.0
0.171429 0.175000 0.0
0.214286 0.175000 0.0
0.257143 0.175000 0.0
0.300000 0.175000 0.0
0.342857 0.175000 0.0
0.385714 0.175000 0.0
0.428571 0.175000 0.0
0.471429 0.175000 0.0
0.514286 0.175000 0.0
0.557143 0.175000 0.0
0.600000 0.175000 0.0
0.642857 0.175000 0.0
0.685714 0.175000 0.0
0.728571 0.175000 0.0
0.771429 0.175000 0.0
0.814286 0.175000 0.0
0.857143 0.175000 0.0
0.900000 0.175000 0.0
0.942857 0.175000 0.0
0.985714 0.175000 0.0
1.028571 0.175000 0.0
1.071429 0.175000 0.0
1.114286 0.175000 0.0
1.157143 0.175000 0.0
1.200000 0.175000 0.0
1.242857 0.175000 0.0
1.285714 0.175000 0.0
1.328571 0.175000 0.0
1.371429 0.175000 0.0
1.414286 0.175000 0.0
1.457143 0.175000 0.0
1.500000 0.175000 0.0
0.000000 0.218750 0.0
0.042857 0.218750 0.0
0.085714 0.218750 0.0
0.128571 0.218750 0.0
0.171429 0.218750 0.0
0.214286 0.218750 0.0
0.257143 0.218750 0.0
0.300000 0.218750 0.0
0.342857 0.218750 0.0
0.385714 0.218750 0.0
0.428571 0.218750 0.0
0.471429 0.218750 0.0
0.514286 0.218750 0.0
0.557143 0.218750 0.0
0.600000 0.218750 0.0
0.642857 0.218750 0.0
0.685714 0.218750 0.0
0.728571 0.218750 0.0
0.771429 0.218750 0.0
0.814286 0.218750 0.0
0.857143 0.218750 0.0
0.900000 0.218750 0.0
0.942857 0.218750 0.0
0.985714 0.218750 0.0
1.028571 0.218750 0.0
1.071429 0.218750 0.0
1.114286 0.218750 0.0
1.157143 0.218750 0.0
1.200000 0.218750 0.0
1.242857 0.218750 0.0
1.285714 0.218750 0.0
1.328571 0.218750 0.0
1.371429 0.218750 0.0
1.414286 0.218750 0.0
1.457143 0.218750 0.0
1.500000 0.218750 0.0
0.000000 0.262500 0.0
0.042857 0.262500 0.0
0.085714 0.262500 0.0
0.128571 0.262500 0.0
0.171429 0.262500 0.0
0.214286 0.262500 0.0
0.257143 0.262500 0.0
0.300000 0.262500 0.0
0.342857 0.262500 0.0
0.385714 0.262500 0.0
0.428571 0.262500 0.0
0.471429 0.262500 0.0
0.514286 0.262500 0.0
0.557143 0.262500 0.0
0.600000 0.262500 0.0
0.642857 0.262500 0.0
0.685714 0.262500 0.0
0.728571 0.262500 0.0
0.771429 0.262500 0.0
0.814286 0.262500 0.0
0.857143 0.262500 0.0
0.900000 0.262500 0.0
0.942857 0.262500 0.0
0.985714 0.262500 0.0
1.028571 0.262500 0.0
1.071429 0.262500 0.0
1.114286 0.262500 0.0
1.157143 0.262500 0.0
1.200000 0.262500 0.0
1.242857 0.262500 0.0
1.285714 0.262500 0.0
1.328571 0.262500 0.0
1.371429 0.262500 0.0
1.414286 0.262500 0.0
1.457143 0.262500 0.0
1.500000 0.262500 0.0
0.000000 0.306250 0.0
0.042857 0.306250 0.0
0.085714 0.306250 0.0
0.128571 0.306250 0.0
0.171429 0.306250 0.0
0.214286 0.306250 0.0
0.257143 0.306250 0.0
0.300000 0.306250 0.0
0.342857 0.306250 0.0
0.385714 0.306250 0.0
0.428571 0.306250 0.0
0.471429 0.306250 0.0
0.514286 0.306250 0.0
0.557143 0.306250 0.0
0.600000 0.306250 0.0
0.642857 0.306250 0.0
0.685714 0.306250 0.0
0.728571 0.306250 0.0
0.771429 0.306250 0.0
0.814286 0.306250 0.0
0.857143 0.306250 0.0
0.900000 0.306250 0.0
0.942857 0.306250 0.0
0.985714 0.306250 0.0
1.028571 0.306250 0.0
1.071429 0.306250 0.0
1.114286 0.306250 0.0
1.157143 0.306250 0.0
1.200000 0.306250 0.0
1.242857 0.306250 0.0
1.285714 0.306250 0.0
1.328571 0.306250 0.0
1.371429 0.306250 0.0
1.414286 0.306250 0.0
1.457143 0.306250 0.0
1.500000 0.306250 0.0
0.000000 0.350000 0.0
0.042857 0.350000 0.0
0.085714 0.350000 0.0
0.128571 0.350000 0.0
0.171429 0.350000 0.0
0.214286 0.350000 0.0
0.257143 0.350000 0.0
0.300000 0.350000 0.0
0.342857 0.350000 0.0
0.385714 0.350000 0.0
0.428571 0.350000 0.0
0.471429 0.350000 0.0
0.514286 0.350000 0.0
0.557143 0.350000 0.0
0.600000 0.350000 0.0
0.642857 0.350000 0.0
0.685714 0.350000 0.0
0.728571 0.350000 0.0
0.771429 0.350000 0.0
0.814286 0.350000 0.0
0.857143 0.350000 0.0
0.900000 0.350000 0.0
0.942857 0.350000 0.0
0.985714 0.350000 0.0
1.028571 0.350000 0.0
1.071429 0.350000 0.0
1.114286 0.350000 0.0
1.157143 0.350000 0.0
1.200000 0.350000 0.0
1.242857 0.350000 0.0
1.285714 0.350000 0.0
1.328571 0.350000 0.0
1.371429 0.350000 0.0
1.414286 0.350000 0.0
1.457143 0.350000 0.0
1.500000 0.350000 0.0
0.000000 0.393750 0.0
0.042857 0.393750 0.0
0.085714 0.393750 0.0
0.128571 0.393750 0.0
0.171429 0.393750 0.0
0.214286 0.393750 0.0
0.257143 0.393750 0.0
0.300000 0.393750 0.0
0.342857 0.393750 0.0
0.385714 0.393750 0.0
0.428571 0.393750 0.0
0.471429 0.393750 0.0
0.514286 0.393750 0.0
0.557143 0.393750 0.0
0.600000 0.393750 0.0
0.642857 0.393750 0.0
0.685714 0.393750 0.0
0.728571 0.393750 0.0
0.771429 0.393750 0.0
0.814286 0.393750 0.0
0.857143 0.393750 0.0
0.900000 0.393750 0.0
0.942857 0.393750 0.0
0.985714 0.393750 0.0
1.028571 0.393750 0.0
1.071429 0.393750 0.0
1.114286 0.393750 0.0
1.157143 0.393750 0.0
1.200000 0.393750 0.0
1.242857 0.393750 0.0
1.285714 0.393750 0.0
1.328571 0.393750 0.0
1.371429 0.393750 0.0
1.414286 0.393750 0.0
1.457143 0.393750 0.0
1.500000 0.393750 0.0
0.000000 0.437500 0.0
0.042857 0.437500 0.0
0.085714 0.437500 0.0
0.128571 0.437500 0.0
0.171429 0.437500 0.0
0.214286 0.437500 0.0
0.257143 0.437500 0.0
0.300000 0.437500 0.0
0.342857 0.437500 0.0
0.385714 0.437500 0.0
0.428571 0.437500 0.0
0.471429 0.437500 0.0
0.514286 0.437500 0.0
0.557143 0.437500 0.0
0.600000 0.437500 0.0
0.642857 0.437500 0.0
0.685714 0.437500 0.0
0.728571 0.437500 0.0
0.771429 0.437500 0.0
0.814286 0.437500 0.0
0.857143 0.437500 0.0
0.900000 0.437500 0.0
0.942857 0.437500 0.0
0.985714 0.437500 0.0
1.028571 0.437500 0.0
1.071429 0.437500 0.0
1.114286 0.437500 0.0
1.157143 0.437500 0.0
1.200000 0.437500 0.0
1.242857 0.437500 0.0
1.285714 0.437500 0.0
1.328571 0.437500 0.0
1.371429 0.437500 0.0
1.414286 0.437500 0.0
1.457143 0.437500 0.0
1.500000 0.437500 0.0
0.000000 0.481250 0.0
0.042857 0.481250 0.0
0.085714 0.481250 0.0
0.128571 0.481250 0.0
0.171429 0.481250 0.0
0.214286 0.481250 0.0
0.257143 0.481250 0.0
0.300000 0.481250 0.0
0.342857 0.481250 0.0
0.385714 0.481250 0.0
0.428571 0.481250 0.0
0.471429 0.481250 0.0
0.514286 0.481250 0.0
0.557143 0.481250 0.0
0.600000 0.481250 0.0
0.642857 0.481250 0.0
0.685714 0.481250 0.0
0.728571 0.481250 0.0
0.771429 0.481250 0.0
0.814286 0.481250 0.0
0.857143 0.481250 0.0
0.900000 0.481250 0.0
0.942857 0.481250 0.0
0.985714 0.481250 0.0
1.028571 0.481250 0.0
1.071429 0.481250 0.0
1.114286 0.481250 0.0
1.157143 0.481250 0.0
1.200000 0.481250 0.0
1.242857 0.481250 0.0
1.285714 0.481250 0.0
1.328571 0.481250 0.0
1.371429 0.481250 0.0
1.414286 0.481250 0.0
1.457143 0.481250 0.0
1.500000 0.481250 0.0
0.000000 0.525000 0.0
0.042857 0.525000 0.0
0.085714 0.525000 0.0
0.128571 0.525000 0.0
0.171429 0.525000 0.0
0.214286 0.525000 0.0
0.257143 0.525000 0.0
0.300000 0.525000 0.0
0.342857 0.525000 0.0
0.385714 0.525000 0.0
0.428571 0.525000 0.0
0.471429 0.525000 0.0
0.514286 0.525000 0.0
0.557143 0.525000 0.0
0.600000 0.525000 0.0
0.642857 0.525000 0.0
0.685714 0.525000 0.0
0.728571 0.525000 0.0
0.771429 0.525000 0.0
0.814286 0.525000 0.0
0.857143 0.525000 0.0
0.900000 0.525000 0.0
0.942857 0.525000 0.0
0.985714 0.525000 0.0
1.028571 0.525000 0.0
1.071429 0.525000 0.0
1.114286 0.525000 0.0
1.157143 0.525000 0.0
1.200000 0.525000 0.0
1.242857 0.525000 0.0
1.285714 0.525000 0.0
1.328571 0.525000 0.0
1.371429 0.525000 0.0
1.414286 0.525000 0.0
1.457143 0.525000 0.0
1.500000 0.525000 0.0
0.000000 0.568750 0.0
0.042857 0.568750 0.0
0.085714 0.568750 0.0
0.128571 0.568750 0.0
0.171429 0.568750 0.0
0.214286 0.568750 0.0
0.257143 0.568750 0.0
0.300000 0.568750 0.0
0.342857 0.568750 0.0
0.385714 0.568750 0.0
0.428571 0.568750 0.0
0.471429 0.568750 0.0
0.514286 0.568750 0.0
0.557143 0.568750 0.0
0.600000 0.568750 0.0
0.642857 0.568750 0.0
0.685714 0.568750 0.0
0.728571 0.568750 0.0
0.771429 0.568750 0.0
0.814286 0.568750 0.0
0.857143 0.568750 0.0
0.900000 0.568750 0.0
0.942857 0.568750 0.0
0.985714 0.568750 0.0
1.028571 0.568750 0.0
1.071429 0.568750 0.0
1.114286 0.568750 0.0
1.157143 0.568750 0.0
1.200000 0.568750 0.0
1.242857 0.568750 0.0
1.285714 0.568750 0.0
1.328571 0.568750 0.0
1.371429 0.568750 0.0
1.414286 0.568750 0.0
1.457143 0.568750 0.0
1.500000 0.568750 0.0
0.000000 0.612500 0.0
0.042857 0.612500 0.0
0.085714 0.612500 0.0
0.128571 0.612500 0.0
0.171429 0.612500 0.0
0.214286 0.612500 0.0
0.257143 0.612500 0.0
0.300000 0.612500 0.0
0.342857 0.612500 0.0
0.385714 0.612500 0.0
0.428571 0.612500 0.0
0.471429 0.612500 0.0
0.514286 0.612500 0.0
0.557143 0.612500 0.0
0.600000 0.612500 0.0
0.642857 0.612500 0.0
0.685714 0.612500 0.0
0.728571 0.612500 0.0
0.771429 0.612500 0.0
0.814286 0.612500 0.0
0.857143 0.612500 0.0
0.900000 0.612500 0.0
0.942857 0.612500 0.0
0.985714 0.612500 0.0
1.028571 0.612500 0.0
1.071429 0.612500 0.0
1.114286 0.612500 0.0
1.157143 0.612500 0.0
1.200000 0.612500 0.0
1.242857 0.612500 0.0
1.285714 0.612500 0.0
1.328571 0.612500 0.0
1.371429 0.612500 0.0
1.414286 0.612500 0.0
1.457143 0.612500 0.0
1.500000 0.612500 0.0
0.000000 0.656250 0.0
0.042857 0.656250 0.0
0.085714 0.656250 0.0
0.128571 0.656250 0.0
0.171429 0.656250 0.0
0.214286 0.656250 0.0
0.257143 0.656250 0.0
0.300000 0.656250 0.0
0.342857 0.656250 0.0
0.385714 0.656250 0.0
0.428571 0.656250 0.0
0.471429 0.656250 0.0
0.514286 0.656250 0.0
0.557143 0.656250 0.0
0.600000 0.656250 0.0
0.642857 0.656250 0.0
0.685714 0.656250 0.0
0.728571 0.656250 0.0
0.771429 0.656250 0.0
0.814286 0.656250 0.0
0.857143 0.656250 0.0
0.900000 0.656250 0.0
0.942857 0.656250 0.0
0.985714 0.656250 0.0
1.028571 0.656250 0.0
1.071429 0.656250 0.0
1.114286 0.656250 0.0
1.157143 0.656250 0.0
1.200000 0.656250 0.0
1.242857 0.656250 0.0
1.285714 0.656250 0.0
1.328571 0.656250 0.0
1.371429 0.656250 0.0
1.414286 0.656250 0.0
1.457143 0.656250 0.0
1.500000 0.656250 0.0
0.000000 0.700000 0.0
0.042857 0.700000 0.0
0.085714 0.700000 0.0
0.128571 0.700000 0.0
0.171429 0.700000 0.0
0.214286 0.700000 0.0
0.257143 0.700000 0.0
0.300000 0.700000 0.0
0.342857 0.700000 0.0
0.385714 0.700000 0.0
0.428571 0.700000 0.0
0.471429 0.700000 0.0
0.514286 0.700000 0.0
0.557143 0.700000 0.0
0.600000 0.700000 0.0
0.642857 0.700000 0.0
0.685714 0.700000 0.0
0.728571 0.700000 0.0
0.771429 0.700000 0.0
0.814286 0.700000 0.0
0.857143 0.700000 0.0
0.900000 0.700000 0.0
0.942857 0.700000 0.0
0.985714 0.700000 0.0
1.028571 0.700000 0.0
1.071429 0.700000 0.0
1.114286 0.700000 0.0
1.157143 0.700000 0.0
1.200000 0.700000 0.0
1.242857 0.700000 0.0
1.285714 0.700000 0.0
1.328571 0.700000 0.0
1.371429 0.700000 0.0
1.414286 0.700000 0.0
1.457143 0.700000 0.0
1.500000 0.700000 0.0
0.000000 0.743750 0.0
0.042857 0.743750 0.0
0.085714 0.743750 0.0
0.128571 0.743750 0.0
0.171429 0.743750 0.0
0.214286 0.743750 0.0
0.257143 0.743750 0.0
0.300000 0.743750 0.0
0.342857 0.743750 0.0
0.385714 0.743750 0.0
0.428571 0.743750 0.0
0.471429 0.743750 0.0
0.514286 0.743750 0.0
0.557143 0.743750 0.0
0.600000 0.743750 0.0
0.642857 0.743750 0.0
0.685714 0.743750 0.0
0.728571 0.743750 0.0
0.771429 0.743750 0.0
0.814286 0.743750 0.0
0.857143 0.743750 0.0
0.900000 0.743750 0.0
0.942857 0.743750 0.0
0.985714 0.743750 0.0
1.028571 0.743750 0.0
1.071429 0.743750 0.0
1.114286 0.743750 0.0
1.157143 0.743750 0.0
1.200000 0.743750 0.0
1.242857 0.743750 0.0
1.285714 0.743750 0.0
1.328571 0.743750 0.0
1.371429 0.743750 0.0
1.414286 0.743750 0.0
1.457143 0.743750 0.0
1.500000 0.743750 0.0
0.000000 0.787500 0.0
0.042857 0.787500 0.0
0.085714 0.787500 0.0
0.128571 0.787500 0.0
0.171429 0.787500 0.0
0.214286 0.787500 0.0
0.257143 0.787500 0.0
0.300000 0.787500 0.0
0.342857 0.787500 0.0
0.385714 0.787500 0.0
0.428571 0.787500 0.0
0.471429 0.787500 0.0
0.514286 0.787500 0.0
0.557143 0.787500 0.0
0.600000 0.787500 0.0
0.642857 0.787500 0.0
0.685714 0.787500 0.0
0.728571 0.787500 0.0
0.771429 0.787500 0.0
0.814286 0.787500 0.0
0.857143 0.787500 0.0
0.900000 0.787500 0.0
0.942857 0.787500 0.0
0.985714 0.787500 0.0
1.028571 0.787500 0.0
1.071429 0.787500 0.0
1.114286 0.787500 0.0
1.157143 0.787500 0.0
1.200000 0.787500 0.0
1.242857 0.787500 0.0
1.285714 0.787500 0.0
1.328571 0.787500 0.0
1.371429 0.787500 0.0
1.414286 0.787500 0.0
1.457143 0.787500 0.0
1.500000 0.787500 0.0
0.000000 0.831250 0.0
0.042857 0.831250 0.0
0.085714 0.831250 0.0
0.128571 0.831250 0.0
0.171429 0.831250 0.0
0.214286 0.831250 0.0
0.257143 0.831250 0.0
0.300000 0.831250 0.0
0.342857 0.831250 0.0
0.385714 0.831250 0.0
0.428571 0.831250 0.0
0.471429 0.831250 0.0
0.514286 0.831250 0.0
0.557143 0.831250 0.0
0.600000 0.831250 0.0
0.642857 0.831250 0.0
0.685714 0.831250 0.0
0.728571 0.831250 0.0
0.771429 0.831250 0.0
0.814286 0.831250 0.0
0.857143 0.831250 0.0
0.900000 0.831250 0.0
0.942857 0.831250 0.0
0.985714 0.831250 0.0
1.028571 0.831250 0.0
1.071429 0.831250 0.0
1.114286 0.831250 0.0
1.157143 0.831250 0.0
1.200000 0.831250 0.0
1.242857 0.831250 0.0
1.285714 0.831250 0.0
1.328571 0.831250 0.0
1.371429 0.831250 0.0
1.414286 0.831250 0.0
1.457143 0.831250 0.0
1.500000 0.831250 0.0
0.000000 0.875000 0.0
0.042857 0.875000 0.0
0.085714 0.875000 0.0
0.128571 0.875000 0.0
0.171429 0.875000 0.0
0.214286 0.875000 0.0
0.257143 0.875000 0.0
0.300000 0.875000 0.0
0.342857 0.875000 0.0
0.385714 0.875000 0.0
0.428571 0.875000 0.0
0.471429 0.875000 0.0
0.514286 0.875000 0.0
0.557143 0.875000 0.0
0.600000 0.875000 0.0
0.642857 0.875000 0.0
0.685714 0.875000 0.0
0.728571 0.875000 0.0
0.771429 0.875000 0.0
0.814286 0.875000 0.0
0.857143 0.875000 0.0
0.900000 0.875000 0.0
0.942857 0.875000 0.0
0.985714 0.875000 0.0
1.028571 0.875000 0.0
1.071429 0.875000 0.0
1.114286 0.875000 0.0
1.157143 0.875000 0.0
1.200000 0.875000 0.0
1.242857 0.875000 0.0
1.285714 0.875000 0.0
1.328571 0.875000 0.0
1.371429 0.875000 0.0
1.414286 0.875000 0.0
1.457143 0.875000 0.0
1.500000 0.875000 0.0
</DataArray></Points>
<PointData>
<DataArray NumberOfComponents="1" format="ascii" type ="Float32" Name="phi">
2.004641
1.994196
1.973606
1.953957
1.935472
1.917852
1.900877
1.884524
1.868843
1.853934
1.839880
1.826625
1.814024
1.801992
1.790510
1.779570
1.769178
1.759390
1.750309
1.741986
1.734370
1.727353
1.720820
1.714694
1.708951
1.703663
1.699070
1.695491
1.693006
1.691513
1.690954
1.691310
1.692579
1.694768
1.697890
1.701974
1.985357
1.974825
1.954158
1.934506
1.915899
1.898035
1.880798
1.864207
1.848337
1.833313
1.819186
1.805840
1.793136
1.781012
1.769447
1.758432
1.747975
1.738125
1.728966
1.720557
1.712876
1.705815
1.699252
1.693102
1.687336
1.682015
1.677378
1.673755
1.671239
1.669730
1.669166
1.669526
1.670811
1.673025
1.676183
1.680318
1.946833
1.936237
1.915541
1.895791
1.876792
1.858396
1.840631
1.823574
1.807374
1.792169
1.777879
1.764309
1.751379
1.739063
1.727333
1.716177
1.705598
1.695620
1.686294
1.677709
1.669891
1.662741
1.656117
1.649919
1.644105
1.638723
1.633999
1.630284
1.627705
1.626162
1.625588
1.625959
1.627274
1.629539
1.632772
1.637010
1.908836
1.898244
1.877437
1.857295
1.837715
1.818736
1.800453
1.783019
1.766631
1.751269
1.736707
1.722833
1.709654
1.697145
1.685264
1.673982
1.663278
1.653151
1.643645
1.634878
1.626918
1.619670
1.612982
1.606736
1.600877
1.595438
1.590630
1.586820
1.584171
1.582594
1.582009
1.582390
1.583737
1.586056
1.589367
1.593712
1.871658
1.860889
1.839594
1.818819
1.798609
1.779062
1.760376
1.742766
1.726239
1.710563
1.695599
1.681388
1.667965
1.655284
1.643270
1.631853
1.620995
1.610698
1.601011
1.592065
1.583956
1.576604
1.569847
1.563553
1.557652
1.552162
1.547273
1.543362
1.540638
1.539023
1.538427
1.538820
1.540201
1.542577
1.545969
1.550427
1.834846
1.823741
1.801755
1.780302
1.759492
1.739534
1.720693
1.702952
1.686070
1.669905
1.654505
1.639976
1.626345
1.613512
1.601345
1.589757
1.578725
1.568253
1.558390
1.549269
1.541006
1.533542
1.526713
1.520372
1.514432
1.508893
1.503924
1.499910
1.497106
1.495451
1.494843
1.495248
1.496665
1.499102
1.502580
1.507159
1.798045
1.786576
1.763869
1.741782
1.720584
1.700506
1.681530
1.663385
1.645937
1.629244
1.613435
1.598646
1.584844
1.571832
1.559460
1.547676
1.536462
1.525819
1.515790
1.506498
1.498072
1.490486
1.483582
1.477195
1.471218
1.465631
1.460581
1.456462
1.453574
1.451878
1.451257
1.451675
1.453129
1.455631
1.459203
1.463911
1.761183
1.749357
1.726003
1.703548
1.682281
1.662061
1.642624
1.623844
1.605785
1.588589
1.572466
1.557496
1.543484
1.530212
1.517598
1.505607
1.494212
1.483410
1.473233
1.463770
1.455164
1.447443
1.440459
1.434025
1.428010
1.422373
1.417244
1.413017
1.410043
1.408303
1.407669
1.408100
1.409594
1.412163
1.415834
1.420684
1.724262
1.712175
1.688526
1.666041
1.644600
1.623863
1.603730
1.584268
1.565631
1.548072
1.531775
1.516581
1.502226
1.488626
1.475756
1.463557
1.451994
1.441051
1.430728
1.421088
1.412291
1.404423
1.397351
1.390864
1.384805
1.379118
1.373910
1.369576
1.366512
1.364727
1.364079
1.364524
1.366060
1.368699
1.372474
1.377476
1.687549
1.675475
1.651870
1.629188
1.607154
1.585668
1.564791
1.544689
1.525663
1.507954
1.491438
1.475821
1.461016
1.447067
1.433938
1.421547
1.409831
1.398741
1.388259
1.378441
1.369458
1.361433
1.354258
1.347707
1.341602
1.335866
1.330582
1.326139
1.322982
1.321148
1.320487
1.320947
1.322526
1.325238
1.329122
1.334290
1.651822
1.639734
1.615865
1.592540
1.569709
1.547430
1.525860
1.505360
1.486221
1.468299
1.451291
1.435099
1.419826
1.405540
1.392168
1.379595
1.367715
1.356459
1.345812
1.335824
1.326660
1.318469
1.311175
1.304551
1.298400
1.292616
1.287258
1.282707
1.279452
1.277568
1.276892
1.277368
1.278992
1.281781
1.285781
1.291127
1.617082
1.604668
1.580054
1.555890
1.532226
1.509220
1.487267
1.466693
1.447337
1.428860
1.411168
1.394376
1.378665
1.364075
1.350472
1.337700
1.325630
1.314196
1.303385
1.293237
1.283896
1.275528
1.268100
1.261397
1.255197
1.249369
1.243941
1.239280
1.235924
1.233986
1.233294
1.233787
1.235460
1.238332
1.242455
1.247989
1.582612
1.569761
1.544255
1.519220
1.494815
1.471446
1.449466
1.428662
1.408682
1.389431
1.371023
1.353676
1.337589
1.322722
1.308866
1.295854
1.283571
1.271954
1.260985
1.250689
1.241173
1.232613
1.225034
1.218242
1.211993
1.206124
1.200632
1.195862
1.192397
1.190402
1.189693
1.190204
1.191931
1.194892
1.199149
1.204879
1.548194
1.534882
1.508469
1.482679
1.457957
1.434588
1.412349
1.390860
1.370029
1.349964
1.330887
1.313105
1.296731
1.281550
1.267359
1.254057
1.241543
1.229744
1.218629
1.208196
1.198505
1.189732
1.181978
1.175086
1.168787
1.162881
1.157332
1.152453
1.148874
1.146816
1.146090
1.146620
1.148403
1.151462
1.155863
1.161794
1.513784
1.500041
1.472896
1.446820
1.422113
1.398439
1.375450
1.353059
1.331341
1.310516
1.290981
1.272959
1.256251
1.240590
1.225948
1.212318
1.199571
1.187604
1.176347
1.165766
1.155889
1.146887
1.138935
1.131931
1.125579
1.119639
1.114037
1.109053
1.105355
1.103229
1.102485
1.103035
1.104878
1.108042
1.112599
1.118738
1.479429
1.465465
1.438140
1.412071
1.386987
1.362505
1.338566
1.315227
1.292694
1.271421
1.251722
1.233389
1.216089
1.199779
1.184637
1.170672
1.157697
1.145556
1.134135
1.123382
1.113312
1.104081
1.095915
1.088782
1.082371
1.076398
1.070748
1.065660
1.061838
1.059640
1.058877
1.059449
1.061357
1.064635
1.069360
1.075718
1.445775
1.431852
1.404532
1.378037
1.352082
1.326614
1.301679
1.277483
1.254524
1.233160
1.213157
1.194145
1.176046
1.159068
1.143460
1.129169
1.115945
1.103587
1.091970
1.081032
1.070771
1.061315
1.052926
1.045642
1.039161
1.033155
1.027462
1.022274
1.018324
1.016050
1.015267
1.015863
1.017841
1.021245
1.026160
1.032740
1.413517
1.399470
1.371623
1.344232
1.317267
1.290771
1.264955
1.240359
1.217353
1.195662
1.174899
1.154978
1.136052
1.118479
1.102466
1.087828
1.074295
1.061678
1.049845
1.038717
1.028271
1.018598
1.009973
1.002514
0.995949
0.989910
0.984180
0.978895
0.974814
0.972457
0.971653
0.972275
0.974328
0.977867
0.982998
0.989803
1.382246
1.367768
1.338985
1.310567
1.282560
1.255177
1.228989
1.204365
1.180987
1.158459
1.136702
1.115827
1.096154
1.078102
1.061697
1.046642
1.032734
1.019824
1.007762
0.996445
0.985823
0.975938
0.967060
0.959399
0.952737
0.946663
0.940898
0.935523
0.931309
0.928861
0.928036
0.928685
0.930817
0.934500
0.939865
0.946896
1.351355
1.336370
1.306542
1.277074
1.248193
1.220461
1.194250
1.169202
1.144920
1.121333
1.098524
1.076761
1.056546
1.038122
1.021221
1.005617
0.991263
0.978027
0.965731
0.954232
0.943430
0.933328
0.924187
0.916302
0.909530
0.903417
0.897618
0.892162
0.887812
0.885262
0.884413
0.885092
0.887308
0.891142
0.896751
0.904006
1.328354
1.305213
1.274334
1.244007
1.214808
1.187045
1.160362
1.134358
1.108971
1.084262
1.060471
1.038138
1.017625
0.998702
0.981061
0.964757
0.949891
0.936302
0.923763
0.912071
0.901073
0.890759
0.881363
0.873245
0.866345
0.860176
0.854338
0.848811
0.844325
0.841660
0.840785
0.841495
0.843802
0.847793
0.853650
0.861126
</DataArray>
<DataArray NumberOfComponents="1" format="ascii" type ="Float32" Name="u">
0.000000
0.000000
0.000000
0.000000
0.000000
0.000000
0.000000
0.000000
0.000000
0.000000
0.000000
0.000000
0.000000
0.000000
0.000000
0.000000
0.000000
0.000000
0.000000
0.000000
0.000000
0.000000
0.000000
0.000000
0.000000
0.000000
0.000000
0.000000
0.000000
0.000000
0.000000
0.000000
0.000000
0.000000
0.000000
0.000000
0.004341
0.004341
0.004339
0.004329
0.004312
0.004285
0.004247
0.004198
0.004135
0.004059
0.003969
0.003862
0.003739
0.003600
0.003445
0.003275
0.003092
0.002897
0.002693
0.002483
0.002270
0.002058
0.001849
0.001647
0.001453
0.001269
0.001097
0.000936
0.000786
0.000648
0.000520
0.000401
0.000289
0.000183
0.000082
-0.000018
0.007880
0.007880
0.007876
0.007862
0.007837
0.007798
0.007743
0.007670
0.007578
0.007464
0.007326
0.007162
0.006972
0.006754
0.006508
0.006235
0.005937
0.005615
0.005274
0.004918
0.004551
0.004178
0.003805
0.003436
0.003075
0.002726
0.002390
0.002070
0.001766
0.001477
0.001203
0.000942
0.000693
0.000453
0.000219
-0.000010
0.010545
0.010545
0.010541
0.010526
0.010500
0.010457
0.010397
0.010317
0.010214
0.010085
0.009928
0.009740
0.009519
0.009263
0.008970
0.008642
0.008278
0.007881
0.007454
0.007003
0.006532
0.006046
0.005553
0.005058
0.004567
0.004084
0.003612
0.003155
0.002713
0.002288
0.001879
0.001484
0.001102
0.000731
0.000367
0.000008
0.012429
0.012429
0.012425
0.012411
0.012385
0.012344
0.012286
0.012206
0.012104
0.011974
0.011814
0.011621
0.011390
0.011120
0.010809
0.010454
0.010057
0.009619
0.009143
0.008633
0.008094
0.007533
0.006957
0.006372
0.005784
0.005200
0.004624
0.004059
0.003508
0.002973
0.002452
0.001946
0.001453
0.000971
0.000497
0.000028
0.013694
0.013694
0.013690
0.013678
0.013654
0.013617
0.013562
0.013489
0.013392
0.013269
0.013115
0.012927
0.012700
0.012431
0.012116
0.011754
0.011344
0.010886
0.010382
0.009837
0.009255
0.008643
0.008009
0.007359
0.006702
0.006044
0.005390
0.004745
0.004112
0.003493
0.002888
0.002298
0.001720
0.001154
0.000595
0.000042
0.014511
0.014511
0.014507
0.014497
0.014476
0.014443
0.014395
0.014329
0.014242
0.014129
0.013987
0.013811
0.013595
0.013336
0.013029
0.012671
0.012259
0.011793
0.011276
0.010709
0.010098
0.009451
0.008774
0.008077
0.007367
0.006653
0.005940
0.005235
0.004541
0.003860
0.003195
0.002543
0.001905
0.001279
0.000661
0.000049
0.015027
0.015027
0.015024
0.015015
0.014998
0.014970
0.014929
0.014873
0.014798
0.014699
0.014572
0.014412
0.014214
0.013971
0.013679
0.013332
0.012927
0.012463
0.011940
0.011361
0.010730
0.010055
0.009345
0.008608
0.007855
0.007094
0.006334
0.005580
0.004838
0.004111
0.003400
0.002705
0.002025
0.001358
0.000701
0.000050
0.015353
0.015353
0.015352
0.015345
0.015331
0.015309
0.015277
0.015232
0.015170
0.015087
0.014980
0.014841
0.014664
0.014443
0.014172
0.013844
0.013453
0.012997
0.012476
0.011890
0.011244
0.010547
0.009806
0.009034
0.008241
0.007438
0.006633
0.005837
0.005053
0.004286
0.003539
0.002810
0.002100
0.001405
0.000722
0.000047
0.015567
0.015567
0.015566
0.015562
0.015552
0.015537
0.015513
0.015480
0.015434
0.015371
0.015285
0.015171
0.015021
0.014828
0.014584
0.014281
0.013912
0.013472
0.012958
0.012372
0.011716
0.010999
0.010230
0.009423
0.008589
0.007742
0.006894
0.006053
0.005228
0.004424
0.003642
0.002885
0.002149
0.001433
0.000732
0.000041
0.015716
0.015716
0.015716
0.015714
0.015708
0.015700
0.015687
0.015667
0.015638
0.015595
0.015535
0.015449
0.015331
0.015172
0.014963
0.014693
0.014354
0.013937
0.013439
0.012858
0.012197
0.011463
0.010668
0.009824
0.008948
0.008054
0.007157
0.006268
0.005398
0.004553
0.003736
0.002949
0.002189
0.001454
0.000738
0.000035
0.015827
0.015827
0.015828
0.015828
0.015827
0.015826
0.015824
0.015818
0.015808
0.015789
0.015756
0.015703
0.015621
0.015502
0.015335
0.015106
0.014806
0.014423
0.013949
0.013382
0.012722
0.011976
0.011155
0.010275
0.009353
0.008408
0.007455
0.006512
0.005590
0.004697
0.003839
0.003018
0.002231
0.001475
0.000743
0.000029
0.015915
0.015915
0.015916
0.015919
0.015923
0.015929
0.015938
0.015948
0.015957
0.015962
0.015960
0.015942
0.015902
0.015829
0.015711
0.015533
0.015282
0.014943
0.014506
0.013963
0.013312
0.012560
0.011718
0.010801
0.009831
0.008829
0.007814
0.006808
0.005824
0.004875
0.003967
0.003103
0.002283
0.001502
0.000753
0.000026
0.015985
0.015985
0.015988
0.015993
0.016002
0.016016
0.016035
0.016061
0.016090
0.016122
0.016151
0.016172
0.016178
0.016156
0.016094
0.015977
0.015786
0.015504
0.015115
0.014609
0.013980
0.013231
0.012373
0.011423
0.010403
0.009339
0.008255
0.007176
0.006120
0.005102
0.004134
0.003218
0.002357
0.001543
0.000770
0.000026
0.016040
0.016040
0.016044
0.016051
0.016065
0.016087
0.016118
0.016159
0.016209
0.016267
0.016329
0.016391
0.016445
0.016480
0.016482
0.016433
0.016314
0.016102
0.015778
0.015324
0.014730
0.013997
0.013132
0.012153
0.011086
0.009957
0.008798
0.007637
0.006497
0.005398
0.004356
0.003376
0.002461
0.001606
0.000802
0.000034
0.016080
0.016080
0.016084
0.016094
0.016113
0.016142
0.016184
0.016240
0.016311
0.016395
0.016491
0.016595
0.016699
0.016794
0.016866
0.016895
0.016859
0.016732
0.016488
0.016104
0.015563
0.014861
0.014002
0.013004
0.011893
0.010701
0.009462
0.008210
0.006975
0.005782
0.004651
0.003592
0.002609
0.001700
0.000853
0.000053
0.016103
0.016103
0.016109
0.016121
0.016144
0.016181
0.016233
0.016304
0.016395
0.016505
0.016634
0.016779
0.016935
0.017092
0.017238
0.017353
0.017411
0.017383
0.017236
0.016941
0.016473
0.015821
0.014986
0.013982
0.012837
0.011585
0.010265
0.008916
0.007576
0.006276
0.005040
0.003885
0.002818
0.001839
0.000936
0.000090
0.016110
0.016110
0.016117
0.016132
0.016159
0.016202
0.016264
0.016349
0.016458
0.016592
0.016753
0.016939
0.017146
0.017367
0.017590
0.017796
0.017957
0.018041
0.018010
0.017824
0.017452
0.016873
0.016081
0.015089
0.013922
0.012619
0.011221
0.009774
0.008322
0.006902
0.005546
0.004277
0.003107
0.002038
0.001059
0.000149
0.016100
0.016100
0.016108
0.016125
0.016156
0.016204
0.016276
0.016372
0.016498
0.016656
0.016846
0.017071
0.017328
0.017612
0.017913
0.018213
0.018485
0.018693
0.018793
0.018738
0.018485
0.018003
0.017280
0.016321
0.015151
0.013809
0.012342