<VTKFile type="StructuredGrid" version="0.1" byte_order="LittleEndian">
<StructuredGrid WholeExtent="1 71 1 81 0 0">
<Piece Extent="1 36 1 21 0 0">
<PointData></PointData>
<CellData></CellData>
<Points>
<DataArray NumberOfComponents="3" format="ascii" type ="Float32" Name="mesh">
0.000000 0.000000 0.0
0.042857 0.000000 0.0
0.085714 0.000000 0.0
0.128571 0.000000 0.0
0.171429 0.000000 0.0
0.214286 0.000000 0.0
0.257143 0.000000 0.0
0.300000 0.000000 0.0
0.342857 0.000000 0.0
0.385714 0.000000 0.0
0.428571 0.000000 0.0
0.471429 0.000000 0.0
0.514286 0.000000 0.0
0.557143 0.000000 0.0
0.600000 0.000000 0.0
0.642857 0.000000 0.0
0.685714 0.000000 0.0
0.728571 0.000000 0.0
0.771429 0.000000 0.0
0.814286 0.000000 0.0
0.857143 0.000000 0.0
0.900000 0.000000 0.0
0.942857 0.000000 0.0
0.985714 0.000000 0.0
1.028571 0.000000 0.0
1.071429 0.000000 0.0
1.114286 0.000000 0.0
1.157143 0.000000 0.0
1.200000 0.000000 0.0
1.242857 0.000000 0.0
1.285714 0.000000 0.0
1.328571 0.000000 0.0
1.371429 0.000000 0.0
1.414286 0.000000 0.0
1.457143 0.000000 0.0
1.500000 0.000000 0.0
0.000000 0.043750 0.0
0.042857 0.043750 0.0
0.085714 0.043750 0.0
0.128571 0.043750 0.0
0.171429 0.043750 0.0
0.214286 0.043750 0.0
0.257143 0.043750 0.0
0.300000 0.043750 0.0
0.342857 0.043750 0.0
0.385714 0.043750 0.0
0.428571 0.043750 0.0
0.471429 0.043750 0.0
0.514286 0.043750 0.0
0.557143 0.043750 0.0
0.600000 0.043750 0.0
0.642857 0.043750 0.0
0.685714 0.043750 0.0
0.728571 0.043750 0.0
0.771429 0.043750 0.0
0.814286 0.043750 0.0
0.857143 0.043750 0.0
0.900000 0.043750 0.0
0.942857 0.043750 0.0
0.985714 0.043750 0.0
1.028571 0.043750 0.0
1.071429 0.043750 0.0
1.114286 0.043750 0.0
1.157143 0.043750 0.0
1.200000 0.043750 0.0
1.242857 0.043750 0.0
1.285714 0.043750 0.0
1.328571 0.043750 0.0
1.371429 0.043750 0.0
1.414286 0.043750 0.0
1.457143 0.043750 0.0
1.500000 0.043750 0.0
0.000000 0.087500 0.0
0.042857 0.087500 0.0
0.085714 0.087500 0.0
0.128571 0.087500 0.0
0.171429 0.087500 0.0
0.214286 0.087500 0.0
0.257143 0.087500 0.0
0.300000 0.087500 0.0
0.342857 0.087500 0.0
0.385714 0.087500 0.0
0.428571 0.087500 0.0
0.471429 0.087500 0.0
0.514286 0.087500 0.0
0.557143 0.087500 0.0
0.600000 0.087500 0.0
0.642857 0.087500 0.0
0.685714 0.087500 0.0
0.728571 0.087500 0.0
0.771429 0.087500 0.0
0.814286 0.087500 0.0
0.857143 0.087500 0.0
0.900000 0.087500 0.0
0.942857 0.087500 0.0
0.985714 0.087500 0.0
1.028571 0.087500 0.0
1.071429 0.087500 0.0
1.114286 0.087500 0.0
1.157143 0.087500 0.0
1.200000 0.087500 0.0
1.242857 0.087500 0.0
1.285714 0.087500 0.0
1.328571 0.087500 0.0
1.371429 0.087500 0.0
1.414286 0.087500 0.0
1.457143 0.087500 0.0
1.500000 0.087500 0.0
0.000000 0.131250 0.0
0.042857 0.131250 0.0
0.085714 0.131250 0.0
0.128571 0.131250 0.0
0.171429 0.131250 0.0
0.214286 0.131250 0.0
0.257143 0.131250 0.0
0.300000 0.131250 0.0
0.342857 0.131250 0.0
0.385714 0.131250 0.0
0.428571 0.131250 0.0
0.471429 0.131250 0.0
0.514286 0.131250 0.0
0.557143 0.131250 0.0
0.600000 0.131250 0.0
0.642857 0.131250 0.0
0.685714 0.131250 0.0
0.728571 0.131250 0.0
0.771429 0.131250 0.0
0.814286 0.131250 0.0
0.857143 0.131250 0.0
0.900000 0.131250 0.0
0.942857 0.131250 0.0
0.985714 0.131250 0.0
1.028571 0.131250 0.0
1.071429 0.131250 0.0
1.114286 0.131250 0.0
1.157143 0.131250 0.0
1.200000 0.131250 0.0
1.242857 0.131250 0.0
1.285714 0.131250 0.0
1.328571 0.131250 0.0
1.371429 0.131250 0.0
1.414286 0.131250 0.0
1.457143 0.131250 0.0
1.500000 0.131250 0.0
0.000000 0.175000 0.0
0.042857 0.175000 0.0
0.085714 0.175000 0.0
0.128571 0.175000 0.0
0.171429 0.175000 0.0
0.214286 0.175000 0.0
0.257143 0.175000 0.0
0.300000 0.175000 0.0
0.342857 0.175000 0.0
0.385714 0.175000 0.0
0.428571 0.175000 0.0
0.471429 0.175000 0.0
0.514286 0.175000 0.0
0.557143 0.175000 0.0
0.600000 0.175000 0.0
0.642857 0.175000 0.0
0.685714 0.175000 0.0
0.728571 0.175000 0.0
0.771429 0.175000 0.0
0.814286 0.175000 0.0
0.857143 0.175000 0.0
0.900000 0.175000 0.0
0.942857 0.175000 0.0
0.985714 0.175000 0.0
1.028571 0.175000 0.0
1.071429 0.175000 0.0
1.114286 0.175000 0.0
1.157143 0.175000 0.0
1.200000 0.175000 0.0
1.242857 0.175000 0.0
1.285714 0.175000 0.0
1.328571 0.175000 0.0
1.371429 0.175000 0.0
1.414286 0.175000 0.0
1.457143 0.175000 0.0
1.500000 0.175000 0.0
0.000000 0.218750 0.0
0.042857 0.218750 0.0
0.085714 0.218750 0.0
0.128571 0.218750 0.0
0.171429 0.218750 0.0
0.214286 0.218750 0.0
0.257143 0.218750 0.0
0.300000 0.218750 0.0
0.342857 0.218750 0.0
0.385714 0.218750 0.0
0.428571 0.218750 0.0
0.471429 0.218750 0.0
0.514286 0.218750 0.0
0.557143 0.218750 0.0
0.600000 0.218750 0.0
0.642857 0.218750 0.0
0.685714 0.218750 0.0
0.728571 0.218750 0.0
0.771429 0.218750 0.0
0.814286 0.218750 0.0
0.857143 0.218750 0.0
0.900000 0.218750 0.0
0.942857 0.218750 0.0
0.985714 0.218750 0.0
1.028571 0.218750 0.0
1.071429 0.218750 0.0
1.114286 0.218750 0.0
1.157143 0.218750 0.0
1.200000 0.218750 0.0
1.242857 0.218750 0.0
1.285714 0.218750 0.0
1.328571 0.218750 0.0
1.371429 0.218750 0.0
1.414286 0.218750 0.0
1.457143 0.218750 0.0
1.500000 0.218750 0.0
0.000000 0.262500 0.0
0.042857 0.262500 0.0
0.085714 0.262500 0.0
0.128571 0.262500 0.0
0.171429 0.262500 0.0
0.214286 0.262500 0.0
0.257143 0.262500 0.0
0.300000 0.262500 0.0
0.342857 0.262500 0.0
0.385714 0.262500 0.0
0.428571 0.262500 0.0
0.471429 0.262500 0.0
0.514286 0.262500 0.0
0.557143 0.262500 0.0
0.600000 0.262500 0.0
0.642857 0.262500 0.0
0.685714 0.262500 0.0
0.728571 0.262500 0.0
0.771429 0.262500 0.0
0.814286 0.262500 0.0
0.857143 0.262500 0.0
0.900000 0.262500 0.0
0.942857 0.262500 0.0
0.985714 0.262500 0.0
1.028571 0.262500 0.0
1.071429 0.262500 0.0
1.114286 0.262500 0.0
1.157143 0.262500 0.0
1.200000 0.262500 0.0
1.242857 0.262500 0.0
1.285714 0.262500 0.0
1.328571 0.262500 0.0
1.371429 0.262500 0.0
1.414286 0.262500 0.0
1.457143 0.262500 0.0
1.500000 0.262500 0.0
0.000000 0.306250 0.0
0.042857 0.306250 0.0
0.085714 0.306250 0.0
0.128571 0.306250 0.0
0.171429 0.306250 0.0
0.214286 0.306250 0.0
0.257143 0.306250 0.0
0.300000 0.306250 0.0
0.342857 0.306250 0.0
0.385714 0.306250 0.0
0.428571 0.306250 0.0
0.471429 0.306250 0.0
0.514286 0.306250 0.0
0.557143 0.306250 0.0
0.600000 0.306250 0.0
0.642857 0.306250 0.0
0.685714 0.306250 0.0
0.728571 0.306250 0.0
0.771429 0.306250 0.0
0.814286 0.306250 0.0
0.857143 0.306250 0.0
0.900000 0.306250 0.0
0.942857 0.306250 0.0
0.985714 0.306250 0.0
1.028571 0.306250 0.0
1.071429 0.306250 0.0
1.114286 0.306250 0.0
1.157143 0.306250 0.0
1.200000 0.306250 0.0
1.242857 0.306250 0.0
1.285714 0.306250 0.0
1.328571 0.306250 0.0
1.371429 0.306250 0.0
1.414286 0.306250 0.0
1.457143 0.306250 0.0
1.500000 0.306250 0.0
0.000000 0.350000 0.0
0.042857 0.350000 0.0
0.085714 0.350000 0.0
0.128571 0.350000 0.0
0.171429 0.350000 0.0
0.214286 0.350000 0.0
0.257143 0.350000 0.0
0.300000 0.350000 0.0
0.342857 0.350000 0.0
0.385714 0.350000 0.0
0.428571 0.350000 0.0
0.471429 0.350000 0.0
0.514286 0.350000 0.0
0.557143 0.350000 0.0
0.600000 0.350000 0.0
0.642857 0.350000 0.0
0.685714 0.350000 0.0
0.728571 0.350000 0.0
0.771429 0.350000 0.0
0.814286 0.350000 0.0
0.857143 0.350000 0.0
0.900000 0.350000 0.0
0.942857 0.350000 0.0
0.985714 0.350000 0.0
1.028571 0.350000 0.0
1.071429 0.350000 0.0
1.114286 0.350000 0.0
1.157143 0.350000 0.0
1.200000 0.350000 0.0
1.242857 0.350000 0.0
1.285714 0.350000 0.0
1.328571 0.350000 0.0
1.371429 0.350000 0.0
1.414286 0.350000 0.0
1.457143 0.350000 0.0
1.500000 0.350000 0.0
0.000000 0.393750 0.0
0.042857 0.393750 0.0
0.085714 0.393750 0.0
0.128571 0.393750 0.0
0.171429 0.393750 0.0
0.214286 0.393750 0.0
0.257143 0.393750 0.0
0.300000 0.393750 0.0
0.342857 0.393750 0.0
0.385714 0.393750 0.0
0.428571 0.393750 0.0
0.471429 0.393750 0.0
0.514286 0.393750 0.0
0.557143 0.393750 0.0
0.600000 0.393750 0.0
0.642857 0.393750 0.0
0.685714 0.393750 0.0
0.728571 0.393750 0.0
0.771429 0.393750 0.0
0.814286 0.393750 0.0
0.857143 0.393750 0.0
0.900000 0.393750 0.0
0.942857 0.393750 0.0
0.985714 0.393750 0.0
1.028571 0.393750 0.0
1.071429 0.393750 0.0
1.114286 0.393750 0.0
1.157143 0.393750 0.0
1.200000 0.393750 0.0
1.242857 0.393750 0.0
1.285714 0.393750 0.0
1.328571 0.393750 0.0
1.371429 0.393750 0.0
1.414286 0.393750 0.0
1.457143 0.393750 0.0
1.500000 0.393750 0.0
0.000000 0.437500 0.0
0.042857 0.437500 0.0
0.085714 0.437500 0.0
0.128571 0.437500 0.0
0.171429 0.437500 0.0
0.214286 0.437500 0.0
0.257143 0.437500 0.0
0.300000 0.437500 0.0
0.342857 0.437500 0.0
0.385714 0.437500 0.0
0.428571 0.437500 0.0
0.471429 0.437500 0.0
0.514286 0.437500 0.0
0.557143 0.437500 0.0
0.600000 0.437500 0.0
0.642857 0.437500 0.0
0.685714 0.437500 0.0
0.728571 0.437500 0.0
0.771429 0.437500 0.0
0.814286 0.437500 0.0
0.857143 0.437500 0.0
0.900000 0.437500 0.0
0.942857 0.437500 0.0
0.985714 0.437500 0.0
1.028571 0.437500 0.0
1.071429 0.437500 0.0
1.114286 0.437500 0.0
1.157143 0.437500 0.0
1.200000 0.437500 0.0
1.242857 0.437500 0.0
1.285714 0.437500 0.0
1.328571 0.437500 0.0
1.371429 0.437500 0.0
1.414286 0.437500 0.0
1.457143 0.437500 0.0
1.500000 0.437500 0.0
0.000000 0.481250 0.0
0.042857 0.481250 0.0
0.085714 0.481250 0.0
0.128571 0.481250 0.0
0.171429 0.481250 0.0
0.214286 0.481250 0.0
0.257143 0.481250 0.0
0.300000 0.481250 0.0
0.342857 0.481250 0.0
0.385714 0.481250 0.0
0.428571 0.481250 0.0
0.471429 0.481250 0.0
0.514286 0.481250 0.0
0.557143 0.481250 0.0
0.600000 0.481250 0.0
0.642857 0.481250 0.0
0.685714 0.481250 0.0
0.728571 0.481250 0.0
0.771429 0.481250 0.0
0.814286 0.481250 0.0
0.857143 0.481250 0.0
0.900000 0.481250 0.0
0.942857 0.481250 0.0
0.985714 0.481250 0.0
1.028571 0.481250 0.0
1.071429 0.481250 0.0
1.114286 0.481250 0.0
1.157143 0.481250 0.0
1.200000 0.481250 0.0
1.242857 0.481250 0.0
1.285714 0.481250 0.0
1.328571 0.481250 0.0
1.371429 0.481250 0.0
1.414286 0.481250 0.0
1.457143 0.481250 0.0
1.500000 0.481250 0.0
0.000000 0.525000 0.0
0.042857 0.525000 0.0
0.085714 0.525000 0.0
0.128571 0.525000 0.0
0.171429 0.525000 0.0
0.214286 0.525000 0.0
0.257143 0.525000 0.0
0.300000 0.525000 0.0
0.342857 0.525000 0.0
0.385714 0.525000 0.0
0.428571 0.525000 0.0
0.471429 0.525000 0.0
0.514286 0.525000 0.0
0.557143 0.525000 0.0
0.600000 0.525000 0.0
0.642857 0.525000 0.0
0.685714 0.525000 0.0
0.728571 0.525000 0.0
0.771429 0.525000 0.0
0.814286 0.525000 0.0
0.857143 0.525000 0.0
0.900000 0.525000 0.0
0.942857 0.525000 0.0
0.985714 0.525000 0.0
1.028571 0.525000 0.0
1.071429 0.525000 0.0
1.114286 0.525000 0.0
1.157143 0.525000 0.0
1.200000 0.525000 0.0
1.242857 0.525000 0.0
1.285714 0.525000 0.0
1.328571 0.525000 0.0
1.371429 0.525000 0.0
1.414286 0.525000 0.0
1.457143 0.525000 0.0
1.500000 0.525000 0.0
0.000000 0.568750 0.0
0.042857 0.568750 0.0
0.085714 0.568750 0.0
0.128571 0.568750 0.0
0.171429 0.568750 0.0
0.214286 0.568750 0.0
0.257143 0.568750 0.0
0.300000 0.568750 0.0
0.342857 0.568750 0.0
0.385714 0.568750 0.0
0.428571 0.568750 0.0
0.471429 0.568750 0.0
0.514286 0.568750 0.0
0.557143 0.568750 0.0
0.600000 0.568750 0.0
0.642857 0.568750 0.0
0.685714 0.568750 0.0
0.728571 0.568750 0.0
0.771429 0.568750 0.0
0.814286 0.568750 0.0
0.857143 0.568750 0.0
0.900000 0.568750 0.0
0.942857 0.568750 0.0
0.985714 0.568750 0.0
1.028571 0.568750 0.0
1.071429 0.568750 0.0
1.114286 0.568750 0.0
1.157143 0.568750 0.0
1.200000 0.568750 0.0
1.242857 0.568750 0.0
1.285714 0.568750 0.0
1.328571 0.568750 0.0
1.371429 0.568750 0.0
1.414286 0.568750 0.0
1.457143 0.568750 0.0
1.500000 0.568750 0.0
0.000000 0.612500 0.0
0.042857 0.612500 0.0
0.085714 0.612500 0.0
0.128571 0.612500 0.0
0.171429 0.612500 0.0
0.214286 0.612500 0.0
0.257143 0.612500 0.0
0.300000 0.612500 0.0
0.342857 0.612500 0.0
0.385714 0.612500 0.0
0.428571 0.612500 0.0
0.471429 0.612500 0.0
0.514286 0.612500 0.0
0.557143 0.612500 0.0
0.600000 0.612500 0.0
0.642857 0.612500 0.0
0.685714 0.612500 0.0
0.728571 0.612500 0.0
0.771429 0.612500 0.0
0.814286 0.612500 0.0
0.857143 0.612500 0.0
0.900000 0.612500 0.0
0.942857 0.612500 0.0
0.985714 0.612500 0.0
1.028571 0.612500 0.0
1.071429 0.612500 0.0
1.114286 0.612500 0.0
1.157143 0.612500 0.0
1.200000 0.612500 0.0
1.242857 0.612500 0.0
1.285714 0.612500 0.0
1.328571 0.612500 0.0
1.371429 0.612500 0.0
1.414286 0.612500 0.0
1.457143 0.612500 0.0
1.500000 0.612500 0.0
0.000000 0.656250 0.0
0.042857 0.656250 0.0
0.085714 0.656250 0.0
0.128571 0.656250 0.0
0.171429 0.656250 0.0
0.214286 0.656250 0.0
0.257143 0.656250 0.0
0.300000 0.656250 0.0
0.342857 0.656250 0.0
0.385714 0.656250 0.0
0.428571 0.656250 0.0
0.471429 0.656250 0.0
0.514286 0.656250 0.0
0.557143 0.656250 0.0
0.600000 0.656250 0.0
0.642857 0.656250 0.0
0.685714 0.656250 0.0
0.728571 0.656250 0.0
0.771429 0.656250 0.0
0.814286 0.656250 0.0
0.857143 0.656250 0.0
0.900000 0.656250 0.0
0.942857 0.656250 0.0
0.985714 0.656250 0.0
1.028571 0.656250 0.0
1.071429 0.656250 0.0
1.114286 0.656250 0.0
1.157143 0.656250 0.0
1.200000 0.656250 0.0
1.242857 0.656250 0.0
1.285714 0.656250 0.0
1.328571 0.656250 0.0
1.371429 0.656250 0.0
1.414286 0.656250 0.0
1.457143 0.656250 0.0
1.500000 0.656250 0.0
0.000000 0.700000 0.0
0.042857 0.700000 0.0
0.085714 0.700000 0.0
0.128571 0.700000 0.0
0.171429 0.700000 0.0
0.214286 0.700000 0.0
0.257143 0.700000 0.0
0.300000 0.700000 0.0
0.342857 0.700000 0.0
0.385714 0.700000 0.0
0.428571 0.700000 0.0
0.471429 0.700000 0.0
0.514286 0.700000 0.0
0.557143 0.700000 0.0
0.600000 0.700000 0.0
0.642857 0.700000 0.0
0.685714 0.700000 0.0
0.728571 0.700000 0.0
0.771429 0.700000 0.0
0.814286 0.700000 0.0
0.857143 0.700000 0.0
0.900000 0.700000 0.0
0.942857 0.700000 0.0
0.985714 0.700000 0.0
1.028571 0.700000 0.0
1.071429 0.700000 0.0
1.114286 0.700000 0.0
1.157143 0.700000 0.0
1.200000 0.700000 0.0
1.242857 0.700000 0.0
1.285714 0.700000 0.0
1.328571 0.700000 0.0
1.371429 0.700000 0.0
1.414286 0.700000 0.0
1.457143 0.700000 0.0
1.500000 0.700000 0.0
0.000000 0.743750 0.0
0.042857 0.743750 0.0
0.085714 0.743750 0.0
0.128571 0.743750 0.0
0.171429 0.743750 0.0
0.214286 0.743750 0.0
0.257143 0.743750 0.0
0.300000 0.743750 0.0
0.342857 0.743750 0.0
0.385714 0.743750 0.0
0.428571 0.743750 0.0
0.471429 0.743750 0.0
0.514286 0.743750 0.0
0.557143 0.743750 0.0
0.600000 0.743750 0.0
0.642857 0.743750 0.0
0.685714 0.743750 0.0
0.728571 0.743750 0.0
0.771429 0.743750 0.0
0.814286 0.743750 0.0
0.857143 0.743750 0.0
0.900000 0.743750 0.0
0.942857 0.743750 0.0
0.985714 0.743750 0.0
1.028571 0.743750 0.0
1.071429 0.743750 0.0
1.114286 0.743750 0.0
1.157143 0.743750 0.0
1.200000 0.743750 0.0
1.242857 0.743750 0.0
1.285714 0.743750 0.0
1.328571 0.743750 0.0
1.371429 0.743750 0.0
1.414286 0.743750 0.0
1.457143 0.743750 0.0
1.500000 0.743750 0.0
0.000000 0.787500 0.0
0.042857 0.787500 0.0
0.085714 0.787500 0.0
0.128571 0.787500 0.0
0.171429 0.787500 0.0
0.214286 0.787500 0.0
0.257143 0.787500 0.0
0.300000 0.787500 0.0
0.342857 0.787500 0.0
0.385714 0.787500 0.0
0.428571 0.787500 0.0
0.471429 0.787500 0.0
0.514286 0.787500 0.0
0.557143 0.787500 0.0
0.600000 0.787500 0.0
0.642857 0.787500 0.0
0.685714 0.787500 0.0
0.728571 0.787500 0.0
0.771429 0.787500 0.0
0.814286 0.787500 0.0
0.857143 0.787500 0.0
0.900000 0.787500 0.0
0.942857 0.787500 0.0
0.985714 0.787500 0.0
1.028571 0.787500 0.0
1.071429 0.787500 0.0
1.114286 0.787500 0.0
1.157143 0.787500 0.0
1.200000 0.787500 0.0
1.242857 0.787500 0.0
1.285714 0.787500 0.0
1.328571 0.787500 0.0
1.371429 0.787500 0.0
1.414286 0.787500 0.0
1.457143 0.787500 0.0
1.500000 0.787500 0.0
0.000000 0.831250 0.0
0.042857 0.831250 0.0
0.085714 0.831250 0.0
0.128571 0.831250 0.0
0.171429 0.831250 0.0
0.214286 0.831250 0.0
0.257143 0.831250 0.0
0.300000 0.831250 0.0
0.342857 0.831250 0.0
0.385714 0.831250 0.0
0.428571 0.831250 0.0
0.471429 0.831250 0.0
0.514286 0.831250 0.0
0.557143 0.831250 0.0
0.600000 0.831250 0.0
0.642857 0.831250 0.0
0.685714 0.831250 0.0
0.728571 0.831250 0.0
0.771429 0.831250 0.0
0.814286 0.831250 0.0
0.857143 0.831250 0.0
0.900000 0.831250 0.0
0.942857 0.831250 0.0
0.985714 0.831250 0.0
1.028571 0.831250 0.0
1.071429 0.831250 0.0
1.114286 0.831250 0.0
1.157143 0.831250 0.0
1.200000 0.831250 0.0
1.242857 0.831250 0.0
1.285714 0.831250 0.0
1.328571 0.831250 0.0
1.371429 0.831250 0.0
1.414286 0.831250 0.0
1.457143 0.831250 0.0
1.500000 0.831250 0.0
0.000000 0.875000 0.0
0.042857 0.875000 0.0
0.085714 0.875000 0.0
0.128571 0.875000 0.0
0.171429 0.875000 0.0
0.214286 0.875000 0.0
0.257143 0.875000 0.0
0.300000 0.875000 0.0
0.342857 0.875000 0.0
0.385714 0.875000 0.0
0.428571 0.875000 0.0
0.471429 0.875000 0.0
0.514286 0.875000 0.0
0.557143 0.875000 0.0
0.600000 0.875000 0.0
0.642857 0.875000 0.0
0.685714 0.875000 0.0
0.728571 0.875000 0.0
0.771429 0.875000 0.0
0.814286 0.875000 0.0
0.857143 0.875000 0.0
0.900000 0.875000 0.0
0.942857 0.875000 0.0
0.985714 0.875000 0.0
1.028571 0.875000 0.0
1.071429 0.875000 0.0
1.114286 0.875000 0.0
1.157143 0.875000 0.0
1.200000 0.875000 0.0
1.242857 0.875000 0.0
1.285714 0.875000 0.0
1.328571 0.875000 0.0
1.371429 0.875000 0.0
1.414286 0.875000 0.0
1.457143 0.875000 0.0
1.500000 0.875000 0.0
</DataArray></Points>
<PointData>
<DataArray NumberOfComponents="1" format="ascii" type ="Float32" Name="phi">
2.198065
2.189628
2.173116
2.157294
2.142139
2.127667
2.113905
2.100900
2.088680
2.077293
2.066785
2.057175
2.048459
2.040620
2.033661
2.027588
2.022425
2.018200
2.014927
2.012613
2.011275
2.010989
2.011707
2.013327
2.015854
2.019288
2.023633
2.028904
2.035097
2.042185
2.050156
2.059002
2.068698
2.079201
2.090461
2.093867
2.178248
2.169742
2.153061
2.137040
2.121686
2.107023
2.093097
2.079952
2.067618
2.056143
2.045560
2.035868
2.027058
2.019125
2.012080
2.005931
2.000706
1.996434
1.993123
1.990782
1.989428
1.989138
1.989864
1.991504
1.994061
1.997534
2.001928
2.007257
2.013519
2.020683
2.028728
2.037650
2.047433
2.058045
2.069429
2.072910
2.138718
2.130032
2.112959
2.096519
2.080760
2.065728
2.051487
2.038088
2.025565
2.013930
2.003169
1.993276
1.984260
1.976134
1.968915
1.962616
1.957269
1.952901
1.949516
1.947121
1.945733
1.945435
1.946178
1.947857
1.950474
1.954028
1.958521
1.963968
1.970372
1.977699
1.985909
1.994990
2.004936
2.015744
2.027367
2.031046
2.099298
2.090378
2.072834
2.055952
2.039802
2.024444
2.009975
1.996405
1.983706
1.971858
1.960849
1.950706
1.941465
1.933141
1.925749
1.919302
1.913835
1.909372
1.905911
1.903459
1.902037
1.901731
1.902492
1.904210
1.906889
1.910525
1.915120
1.920688
1.927237
1.934737
1.943141
1.952417
1.962543
1.973520
1.985335
1.989255
2.059837
2.050664
2.032641
2.015355
1.998901
1.983353
1.968741
1.954971
1.941997
1.929842
1.918539
1.908133
1.898665
1.890146
1.882586
1.876000
1.870419
1.865855
1.862312
1.859799
1.858340
1.858026
1.858806
1.860564
1.863305
1.867024
1.871723
1.877413
1.884107
1.891782
1.900389
1.909892
1.920253
1.931438
1.943434
1.947535
2.020277
2.010874
1.992443
1.974899
1.958314
1.942623
1.927756
1.913644
1.900308
1.887815
1.876217
1.865557
1.855874
1.847177
1.839464
1.832741
1.827033
1.822354
1.818719
1.816140
1.814641
1.814320
1.815119
1.816923
1.819727
1.823528
1.828332
1.834145
1.840985
1.848831
1.857639
1.867372
1.877990
1.889448
1.901695
1.905897
1.980661
1.971121
1.952521
1.934891
1.918130
1.902111
1.886823
1.872296
1.858585
1.845763
1.833896
1.823024
1.813163
1.804296
1.796413
1.789527
1.783664
1.778857
1.775127
1.772478
1.770939
1.770610
1.771432
1.773285
1.776161
1.780047
1.784953
1.790895
1.797889
1.805906
1.814904
1.824856
1.835728
1.847471
1.860020
1.864293
1.941345
1.931799
1.913148
1.895293
1.878116
1.861611
1.845841
1.830893
1.816835
1.803744
1.791683
1.780644
1.770588
1.761501
1.753403
1.746324
1.740296
1.735361
1.731534
1.728814
1.727235
1.726897
1.727742
1.729649
1.732606
1.736589
1.741604
1.747680
1.754847
1.763057
1.772243
1.782386
1.793480
1.805495
1.818350
1.822700
1.902751
1.893116
1.874143
1.855787
1.838069
1.821034
1.804795
1.789486
1.775198
1.761945
1.749700
1.738420
1.728084
1.718722
1.710389
1.703116
1.696927
1.691865
1.687941
1.685150
1.683529
1.683183
1.684050
1.686011
1.689054
1.693149
1.698290
1.704508
1.711853
1.720282
1.729695
1.740046
1.751330
1.763559
1.776686
1.781225
1.864637
1.854731
1.835176
1.816204
1.797908
1.780386
1.763813
1.748326
1.733901
1.720432
1.707869
1.696234
1.685570
1.675929
1.667366
1.659904
1.653562
1.648378
1.644356
1.641489
1.639823
1.639467
1.640358
1.642372
1.645502
1.649716
1.654999
1.661371
1.668889
1.677536
1.687208
1.697830
1.709356
1.721781
1.735103
1.739949
1.826571
1.816322
1.796088
1.776495
1.757703
1.739904
1.723231
1.707608
1.692900
1.679031
1.666039
1.654011
1.643025
1.633125
1.624350
1.616714
1.610228
1.604919
1.600784
1.597832
1.596116
1.595749
1.596666
1.598733
1.601951
1.606288
1.611723
1.618263
1.625952
1.634800
1.644728
1.655648
1.667493
1.680203
1.693747
1.698863
1.788361
1.777756
1.756860
1.736797
1.717821
1.699979
1.683143
1.667144
1.651949
1.637588
1.624145
1.611745
1.600476
1.590365
1.581410
1.573600
1.566946
1.561481
1.557217
1.554174
1.552407
1.552029
1.552973
1.555098
1.558404
1.562866
1.568460
1.575187
1.583058
1.592092
1.602254
1.613465
1.625642
1.638711
1.652598
1.657907
1.749949
1.739066
1.717767
1.697602
1.678626
1.660565
1.643251
1.626670
1.610901
1.596042
1.582208
1.569531
1.558069
1.547777
1.538606
1.530565
1.523695
1.518046
1.513646
1.510514
1.508696
1.508307
1.509278
1.511469
1.514873
1.519457
1.525212
1.532145
1.540239
1.549470
1.559829
1.571292
1.583786
1.597220
1.611499
1.616964
1.711528
1.700610
1.679354
1.659199
1.639901
1.621265
1.603295
1.586065
1.569744
1.554479
1.540413
1.527591
1.515928
1.505358
1.495875
1.487548
1.480443
1.474605
1.470070
1.466852
1.464987
1.464584
1.465582
1.467844
1.471361
1.476081
1.481991
1.489127
1.497480
1.506975
1.517555
1.529215
1.541958
1.555726
1.570395
1.575999
1.673876
1.663028
1.641749
1.621193
1.601228
1.581853
1.563165
1.545351
1.528658
1.513226
1.499033
1.485969
1.473943
1.462974
1.453131
1.444514
1.437179
1.431161
1.426499
1.423199
1.421282
1.420862
1.421885
1.424218
1.427860
1.432741
1.438817
1.446140
1.454743
1.464549
1.475444
1.487361
1.500300
1.514301
1.529299
1.535081
1.637347
1.626308
1.604486
1.583181
1.562401
1.542252
1.522963
1.504842
1.488059
1.472510
1.457999
1.444456
1.431936
1.420531
1.410346
1.401465
1.393926
1.387753
1.382965
1.379566
1.377582
1.377141
1.378191
1.380592
1.384357
1.389419
1.395698
1.403209
1.412029
1.422133
1.433390
1.445678
1.458919
1.473127
1.488329
1.494431
1.601267
1.589835
1.567181
1.544997
1.523392
1.502637
1.483129
1.465008
1.448070
1.432091
1.417007
1.402874
1.389827
1.378022
1.367554
1.358470
1.350769
1.344432
1.339477
1.335944
1.333879
1.333416
1.334499
1.336970
1.340852
1.346099
1.352615
1.360356
1.369376
1.379730
1.391333
1.404027
1.417694
1.432255
1.447702
1.454186
1.565193
1.553290
1.529686
1.506641
1.484461
1.463570
1.444125
1.425798
1.408316
1.391651
1.375883
1.361156
1.347668
1.335580
1.324925
1.315657
1.307739
1.301171
1.296003
1.292314
1.290162
1.289681
1.290804
1.293357
1.297356
1.302778
1.309543
1.317572
1.326839
1.337401
1.349286
1.362369
1.376484
1.391512
1.407385
1.414192
1.528932
1.516552
1.492068
1.468475
1.446260
1.425472
1.405734
1.386747
1.368485
1.351042
1.334611
1.319422
1.305700
1.293465
1.282586
1.273004
1.264754
1.257898
1.252505
1.248664
1.246435
1.245939
1.247102
1.249757
1.253888
1.259472
1.266477
1.274821
1.284420
1.295242
1.307341
1.320728
1.335267
1.350781
1.367159
1.374266
1.492459
1.479720
1.454776
1.431215
1.409110
1.387950
1.367445
1.347581
1.328444
1.310283
1.293421
1.278069
1.264224
1.251706
1.240400
1.230364
1.221724
1.214575
1.208979
1.205005
1.202709
1.202195
1.203394
1.206159
1.210457
1.216217
1.223434
1.232083
1.242062
1.253261
1.265638
1.279239
1.294086
1.310051
1.326950
1.334344
1.465104
1.443277
1.418517
1.395062
1.372486
1.350471
1.329012
1.308200
1.288290
1.269739
1.252805
1.237347
1.223128
1.210045
1.198160
1.187636
1.178630
1.171224
1.165457
1.161369
1.158996
1.158455
1.159689
1.162557
1.167045
1.173033
1.180460
1.189371
1.199722
1.211364
1.224165
1.238071
1.253134
1.269405
1.286767
1.294468
</DataArray>
<DataArray NumberOfComponents="1" format="ascii" type ="Float32" Name="u">
0.000000
0.000000
0.000000
0.000000
0.000000
0.000000
0.000000
0.000000
0.000000
0.000000
0.000000
0.000000
0.000000
0.000000
0.000000
0.000000
0.000000
0.000000
0.000000
0.000000
0.000000
0.000000
0.000000
0.000000
0.000000
0.000000
0.000000
0.000000
0.000000
0.000000
0.000000
0.000000
0.000000
0.000000
0.000000
0.000000
0.002630
0.002630
0.002624
0.002610
0.002586
0.002548
0.002496
0.002428
0.002344
0.002244
0.002128
0.001996
0.001851
0.001693
0.001525
0.001351
0.001175
0.001000
0.000829
0.000668
0.000518
0.000382
0.000261
0.000158
0.000072
0.000003
-0.000050
-0.000088
-0.000113
-0.000126
-0.000129
-0.000123
-0.000111
-0.000094
-0.000074
-0.000052
0.005332
0.005332
0.005323
0.005302
0.005263
0.005205
0.005123
0.005017
0.004884
0.004723
0.004535
0.004318
0.004075
0.003808
0.003521
0.003217
0.002904
0.002586
0.002271
0.001964
0.001671
0.001397
0.001146
0.000920
0.000721
0.000549
0.000403
0.000282
0.000185
0.000108
0.000049
0.000005
-0.000027
-0.000049
-0.000065
-0.000078
0.007818
0.007818
0.007809
0.007785
0.007742
0.007675
0.007581
0.007458
0.007302
0.007111
0.006884
0.006620
0.006320
0.005986
0.005621
0.005229
0.004818
0.004394
0.003965
0.003539
0.003123
0.002725
0.002349
0.002001
0.001682
0.001396
0.001141
0.000918
0.000724
0.000556
0.000412
0.000287
0.000179
0.000084
-0.000002
-0.000083
0.009937
0.009937
0.009927
0.009904
0.009860
0.009793
0.009698
0.009571
0.009409
0.009209
0.008967
0.008683
0.008356
0.007986
0.007576
0.007130
0.006655
0.006157
0.005646
0.005128
0.004615
0.004113
0.003630
0.003172
0.002744
0.002348
0.001985
0.001656
0.001360
0.001094
0.000854
0.000638
0.000441
0.000259
0.000088
-0.000076
0.011639
0.011639
0.011630
0.011608
0.011568
0.011504
0.011413
0.011291
0.011133
0.010935
0.010693
0.010406
0.010070
0.009686
0.009255
0.008779
0.008265
0.007719
0.007150
0.006566
0.005978
0.005395
0.004825
0.004276
0.003754
0.003262
0.002803
0.002378
0.001987
0.001627
0.001296
0.000991
0.000707
0.000440
0.000185
-0.000062
0.012948
0.012948
0.012940
0.012920
0.012883
0.012825
0.012741
0.012627
0.012478
0.012289
0.012057
0.011777
0.011445
0.011060
0.010622
0.010132
0.009596
0.009020
0.008411
0.007779
0.007135
0.006489
0.005850
0.005228
0.004628
0.004056
0.003516
0.003010
0.002537
0.002096
0.001686
0.001303
0.000942
0.000600
0.000272
-0.000048
0.013923
0.013923
0.013916
0.013898
0.013865
0.013813
0.013737
0.013633
0.013497
0.013322
0.013103
0.012836
0.012515
0.012138
0.011703
0.011210
0.010662
0.010067
0.009430
0.008763
0.008076
0.007379
0.006685
0.006001
0.005338
0.004700
0.004093
0.003520
0.002980
0.002474
0.001999
0.001552
0.001130
0.000727
0.000340
-0.000038
0.014636
0.014636
0.014630
0.014615
0.014586
0.014540
0.014473
0.014381
0.014258
0.014099
0.013898
0.013649
0.013344
0.012981
0.012555
0.012065
0.011514
0.010906
0.010250
0.009554
0.008831
0.008092
0.007350
0.006615
0.005897
0.005203
0.004540
0.003910
0.003316
0.002756
0.002230
0.001735
0.001265
0.000818
0.000387
-0.000034
0.015158
0.015158
0.015152
0.015139
0.015114
0.015075
0.015017
0.014938
0.014831
0.014690
0.014509
0.014281
0.013997
0.013652
0.013241
0.012761
0.012212
0.011598
0.010927
0.010207
0.009453
0.008676
0.007890
0.007107
0.006339
0.005595
0.004882
0.004203
0.003562
0.002959
0.002392
0.001859
0.001355
0.000876
0.000415
-0.000034
0.015545
0.015545
0.015540
0.015529
0.015508
0.015476
0.015428
0.015362
0.015271
0.015151
0.014993
0.014789
0.014531
0.014210
0.013819
0.013354
0.012813
0.012199
0.011517
0.010778
0.009994
0.009181
0.008353
0.007525
0.006709
0.005916
0.005154
0.004430
0.003747
0.003105
0.002504
0.001941
0.001411
0.000909
0.000429
-0.000037
0.015842
0.015842
0.015838
0.015829
0.015812
0.015787
0.015749
0.015697
0.015624
0.015525
0.015393
0.015218
0.014990
0.014698
0.014334
0.013891
0.013364
0.012755
0.012067
0.011313
0.010504
0.009656
0.008786
0.007911
0.007046
0.006203
0.005393
0.004623
0.003898
0.003219
0.002586
0.001997
0.001446
0.000928
0.000436
-0.000039
0.016080
0.016080
0.016077
0.016070
0.016057
0.016038
0.016011
0.015973
0.015919
0.015844
0.015740
0.015596
0.015403
0.015147
0.014817
0.014402
0.013897
0.013300
0.012614
0.011848
0.011017
0.010136
0.009225
0.008303
0.007387
0.006492
0.005631
0.004812
0.004042
0.003325
0.002660
0.002044
0.001474
0.000942
0.000440
-0.000040
0.016279
0.016279
0.016277
0.016272
0.016263
0.016251
0.016234
0.016210
0.016176
0.016126
0.016052
0.015944
0.015789
0.015575
0.015285
0.014908
0.014434
0.013857
0.013180
0.012409
0.011560
0.010649
0.009698
0.008728
0.007759
0.006808
0.005892
0.005020
0.004202
0.003442
0.002741
0.002097
0.001505
0.000959
0.000449
-0.000035
0.016453
0.016453
0.016451
0.016448
0.016443
0.016437
0.016430
0.016421
0.016406
0.016381
0.016339
0.016269
0.016158
0.015991
0.015750
0.015419
0.014985
0.014438
0.013778
0.013011
0.012149
0.011213
0.010224
0.009206
0.008182
0.007173
0.006197
0.005267
0.004395
0.003587
0.002845
0.002168
0.001551
0.000988
0.000468
-0.000023
0.016607
0.016607
0.016606
0.016604
0.016603
0.016604
0.016606
0.016611
0.016616
0.016616
0.016607
0.016577
0.016513
0.016398
0.016213
0.015937
0.015553
0.015047
0.014415
0.013661
0.012795
0.011838
0.010814
0.009750
0.008670
0.007600
0.006561
0.005569
0.004637
0.003774
0.002984
0.002268
0.001620
0.001035
0.000500
-0.000000
0.016747
0.016747
0.016746
0.016746
0.016748
0.016754
0.016765
0.016783
0.016807
0.016833
0.016856
0.016868
0.016854
0.016796
0.016673
0.016461
0.016137
0.015684
0.015092
0.014360
0.013500
0.012531
0.011477
0.010369
0.009234
0.008102
0.006995
0.005936
0.004938
0.004014
0.003169
0.002406
0.001721
0.001106
0.000549
0.000033
0.016872
0.016872
0.016872
0.016873
0.016878
0.016889
0.016909
0.016939
0.016980
0.017031
0.017087
0.017140
0.017177
0.017180
0.017125
0.016985
0.016732
0.016344
0.015804
0.015108
0.014264
0.013290
0.012214
0.011066
0.009879
0.008683
0.007508
0.006376
0.005307
0.004315
0.003408
0.002590
0.001858
0.001206
0.000619
0.000078
0.016984
0.016984
0.016984
0.016986
0.016993
0.017009
0.017036
0.017078
0.017136
0.017209
0.017296
0.017390
0.017480
0.017546
0.017564
0.017503
0.017332
0.017020
0.016546
0.015898
0.015082
0.014115
0.013024
0.011842