<VTKFile type="StructuredGrid" version="0.1" byte_order="LittleEndian">
<StructuredGrid WholeExtent="1 71 1 81 0 0">
<Piece Extent="36 71 61 81 0 0">
<PointData></PointData>
<CellData></CellData>
<Points>
<DataArray NumberOfComponents="3" format="ascii" type ="Float32" Name="mesh">
1.500000 2.625000 0.0
1.542857 2.625000 0.0
1.585714 2.625000 0.0
1.628571 2.625000 0.0
1.671429 2.625000 0.0
1.714286 2.625000 0.0
1.757143 2.625000 0.0
1.800000 2.625000 0.0
1.842857 2.625000 0.0
1.885714 2.625000 0.0
1.928571 2.625000 0.0
1.971429 2.625000 0.0
2.014286 2.625000 0.0
2.057143 2.625000 0.0
2.100000 2.625000 0.0
2.142857 2.625000 0.0
2.185714 2.625000 0.0
2.228571 2.625000 0.0
2.271429 2.625000 0.0
2.314286 2.625000 0.0
2.357143 2.625000 0.0
2.400000 2.625000 0.0
2.442857 2.625000 0.0
2.485714 2.625000 0.0
2.528571 2.625000 0.0
2.571429 2.625000 0.0
2.614286 2.625000 0.0
2.657143 2.625000 0.0
2.700000 2.625000 0.0
2.742857 2.625000 0.0
2.785714 2.625000 0.0
2.828571 2.625000 0.0
2.871429 2.625000 0.0
2.914286 2.625000 0.0
2.957143 2.625000 0.0
3.000000 2.625000 0.0
1.500000 2.668750 0.0
1.542857 2.668750 0.0
1.585714 2.668750 0.0
1.628571 2.668750 0.0
1.671429 2.668750 0.0
1.714286 2.668750 0.0
1.757143 2.668750 0.0
1.800000 2.668750 0.0
1.842857 2.668750 0.0
1.885714 2.668750 0.0
1.928571 2.668750 0.0
1.971429 2.668750 0.0
2.014286 2.668750 0.0
2.057143 2.668750 0.0
2.100000 2.668750 0.0
2.142857 2.668750 0.0
2.185714 2.668750 0.0
2.228571 2.668750 0.0
2.271429 2.668750 0.0
2.314286 2.668750 0.0
2.357143 2.668750 0.0
2.400000 2.668750 0.0
2.442857 2.668750 0.0
2.485714 2.668750 0.0
2.528571 2.668750 0.0
2.571429 2.668750 0.0
2.614286 2.668750 0.0
2.657143 2.668750 0.0
2.700000 2.668750 0.0
2.742857 2.668750 0.0
2.785714 2.668750 0.0
2.828571 2.668750 0.0
2.871429 2.668750 0.0
2.914286 2.668750 0.0
2.957143 2.668750 0.0
3.000000 2.668750 0.0
1.500000 2.712500 0.0
1.542857 2.712500 0.0
1.585714 2.712500 0.0
1.628571 2.712500 0.0
1.671429 2.712500 0.0
1.714286 2.712500 0.0
1.757143 2.712500 0.0
1.800000 2.712500 0.0
1.842857 2.712500 0.0
1.885714 2.712500 0.0
1.928571 2.712500 0.0
1.971429 2.712500 0.0
2.014286 2.712500 0.0
2.057143 2.712500 0.0
2.100000 2.712500 0.0
2.142857 2.712500 0.0
2.185714 2.712500 0.0
2.228571 2.712500 0.0
2.271429 2.712500 0.0
2.314286 2.712500 0.0
2.357143 2.712500 0.0
2.400000 2.712500 0.0
2.442857 2.712500 0.0
2.485714 2.712500 0.0
2.528571 2.712500 0.0
2.571429 2.712500 0.0
2.614286 2.712500 0.0
2.657143 2.712500 0.0
2.700000 2.712500 0.0
2.742857 2.712500 0.0
2.785714 2.712500 0.0
2.828571 2.712500 0.0
2.871429 2.712500 0.0
2.914286 2.712500 0.0
2.957143 2.712500 0.0
3.000000 2.712500 0.0
1.500000 2.756250 0.0
1.542857 2.756250 0.0
1.585714 2.756250 0.0
1.628571 2.756250 0.0
1.671429 2.756250 0.0
1.714286 2.756250 0.0
1.757143 2.756250 0.0
1.800000 2.756250 0.0
1.842857 2.756250 0.0
1.885714 2.756250 0.0
1.928571 2.756250 0.0
1.971429 2.756250 0.0
2.014286 2.756250 0.0
2.057143 2.756250 0.0
2.100000 2.756250 0.0
2.142857 2.756250 0.0
2.185714 2.756250 0.0
2.228571 2.756250 0.0
2.271429 2.756250 0.0
2.314286 2.756250 0.0
2.357143 2.756250 0.0
2.400000 2.756250 0.0
2.442857 2.756250 0.0
2.485714 2.756250 0.0
2.528571 2.756250 0.0
2.571429 2.756250 0.0
2.614286 2.756250 0.0
2.657143 2.756250 0.0
2.700000 2.756250 0.0
2.742857 2.756250 0.0
2.785714 2.756250 0.0
2.828571 2.756250 0.0
2.871429 2.756250 0.0
2.914286 2.756250 0.0
2.957143 2.756250 0.0
3.000000 2.756250 0.0
1.500000 2.800000 0.0
1.542857 2.800000 0.0
1.585714 2.800000 0.0
1.628571 2.800000 0.0
1.671429 2.800000 0.0
1.714286 2.800000 0.0
1.757143 2.800000 0.0
1.800000 2.800000 0.0
1.842857 2.800000 0.0
1.885714 2.800000 0.0
1.928571 2.800000 0.0
1.971429 2.800000 0.0
2.014286 2.800000 0.0
2.057143 2.800000 0.0
2.100000 2.800000 0.0
2.142857 2.800000 0.0
2.185714 2.800000 0.0
2.228571 2.800000 0.0
2.271429 2.800000 0.0
2.314286 2.800000 0.0
2.357143 2.800000 0.0
2.400000 2.800000 0.0
2.442857 2.800000 0.0
2.485714 2.800000 0.0
2.528571 2.800000 0.0
2.571429 2.800000 0.0
2.614286 2.800000 0.0
2.657143 2.800000 0.0
2.700000 2.800000 0.0
2.742857 2.800000 0.0
2.785714 2.800000 0.0
2.828571 2.800000 0.0
2.871429 2.800000 0.0
2.914286 2.800000 0.0
2.957143 2.800000 0.0
3.000000 2.800000 0.0
1.500000 2.843750 0.0
1.542857 2.843750 0.0
1.585714 2.843750 0.0
1.628571 2.843750 0.0
1.671429 2.843750 0.0
1.714286 2.843750 0.0
1.757143 2.843750 0.0
1.800000 2.843750 0.0
1.842857 2.843750 0.0
1.885714 2.843750 0.0
1.928571 2.843750 0.0
1.971429 2.843750 0.0
2.014286 2.843750 0.0
2.057143 2.843750 0.0
2.100000 2.843750 0.0
2.142857 2.843750 0.0
2.185714 2.843750 0.0
2.228571 2.843750 0.0
2.271429 2.843750 0.0
2.314286 2.843750 0.0
2.357143 2.843750 0.0
2.400000 2.843750 0.0
2.442857 2.843750 0.0
2.485714 2.843750 0.0
2.528571 2.843750 0.0
2.571429 2.843750 0.0
2.614286 2.843750 0.0
2.657143 2.843750 0.0
2.700000 2.843750 0.0
2.742857 2.843750 0.0
2.785714 2.843750 0.0
2.828571 2.843750 0.0
2.871429 2.843750 0.0
2.914286 2.843750 0.0
2.957143 2.843750 0.0
3.000000 2.843750 0.0
1.500000 2.887500 0.0
1.542857 2.887500 0.0
1.585714 2.887500 0.0
1.628571 2.887500 0.0
1.671429 2.887500 0.0
1.714286 2.887500 0.0
1.757143 2.887500 0.0
1.800000 2.887500 0.0
1.842857 2.887500 0.0
1.885714 2.887500 0.0
1.928571 2.887500 0.0
1.971429 2.887500 0.0
2.014286 2.887500 0.0
2.057143 2.887500 0.0
2.100000 2.887500 0.0
2.142857 2.887500 0.0
2.185714 2.887500 0.0
2.228571 2.887500 0.0
2.271429 2.887500 0.0
2.314286 2.887500 0.0
2.357143 2.887500 0.0
2.400000 2.887500 0.0
2.442857 2.887500 0.0
2.485714 2.887500 0.0
2.528571 2.887500 0.0
2.571429 2.887500 0.0
2.614286 2.887500 0.0
2.657143 2.887500 0.0
2.700000 2.887500 0.0
2.742857 2.887500 0.0
2.785714 2.887500 0.0
2.828571 2.887500 0.0
2.871429 2.887500 0.0
2.914286 2.887500 0.0
2.957143 2.887500 0.0
3.000000 2.887500 0.0
1.500000 2.931250 0.0
1.542857 2.931250 0.0
1.585714 2.931250 0.0
1.628571 2.931250 0.0
1.671429 2.931250 0.0
1.714286 2.931250 0.0
1.757143 2.931250 0.0
1.800000 2.931250 0.0
1.842857 2.931250 0.0
1.885714 2.931250 0.0
1.928571 2.931250 0.0
1.971429 2.931250 0.0
2.014286 2.931250 0.0
2.057143 2.931250 0.0
2.100000 2.931250 0.0
2.142857 2.931250 0.0
2.185714 2.931250 0.0
2.228571 2.931250 0.0
2.271429 2.931250 0.0
2.314286 2.931250 0.0
2.357143 2.931250 0.0
2.400000 2.931250 0.0
2.442857 2.931250 0.0
2.485714 2.931250 0.0
2.528571 2.931250 0.0
2.571429 2.931250 0.0
2.614286 2.931250 0.0
2.657143 2.931250 0.0
2.700000 2.931250 0.0
2.742857 2.931250 0.0
2.785714 2.931250 0.0
2.828571 2.931250 0.0
2.871429 2.931250 0.0
2.914286 2.931250 0.0
2.957143 2.931250 0.0
3.000000 2.931250 0.0
1.500000 2.975000 0.0
1.542857 2.975000 0.0
1.585714 2.975000 0.0
1.628571 2.975000 0.0
1.671429 2.975000 0.0
1.714286 2.975000 0.0
1.757143 2.975000 0.0
1.800000 2.975000 0.0
1.842857 2.975000 0.0
1.885714 2.975000 0.0
1.928571 2.975000 0.0
1.971429 2.975000 0.0
2.014286 2.975000 0.0
2.057143 2.975000 0.0
2.100000 2.975000 0.0
2.142857 2.975000 0.0
2.185714 2.975000 0.0
2.228571 2.975000 0.0
2.271429 2.975000 0.0
2.314286 2.975000 0.0
2.357143 2.975000 0.0
2.400000 2.975000 0.0
2.442857 2.975000 0.0
2.485714 2.975000 0.0
2.528571 2.975000 0.0
2.571429 2.975000 0.0
2.614286 2.975000 0.0
2.657143 2.975000 0.0
2.700000 2.975000 0.0
2.742857 2.975000 0.0
2.785714 2.975000 0.0
2.828571 2.975000 0.0
2.871429 2.975000 0.0
2.914286 2.975000 0.0
2.957143 2.975000 0.0
3.000000 2.975000 0.0
1.500000 3.018750 0.0
1.542857 3.018750 0.0
1.585714 3.018750 0.0
1.628571 3.018750 0.0
1.671429 3.018750 0.0
1.714286 3.018750 0.0
1.757143 3.018750 0.0
1.800000 3.018750 0.0
1.842857 3.018750 0.0
1.885714 3.018750 0.0
1.928571 3.018750 0.0
1.971429 3.018750 0.0
2.014286 3.018750 0.0
2.057143 3.018750 0.0
2.100000 3.018750 0.0
2.142857 3.018750 0.0
2.185714 3.018750 0.0
2.228571 3.018750 0.0
2.271429 3.018750 0.0
2.314286 3.018750 0.0
2.357143 3.018750 0.0
2.400000 3.018750 0.0
2.442857 3.018750 0.0
2.485714 3.018750 0.0
2.528571 3.018750 0.0
2.571429 3.018750 0.0
2.614286 3.018750 0.0
2.657143 3.018750 0.0
2.700000 3.018750 0.0
2.742857 3.018750 0.0
2.785714 3.018750 0.0
2.828571 3.018750 0.0
2.871429 3.018750 0.0
2.914286 3.018750 0.0
2.957143 3.018750 0.0
3.000000 3.018750 0.0
1.500000 3.062500 0.0
1.542857 3.062500 0.0
1.585714 3.062500 0.0
1.628571 3.062500 0.0
1.671429 3.062500 0.0
1.714286 3.062500 0.0
1.757143 3.062500 0.0
1.800000 3.062500 0.0
1.842857 3.062500 0.0
1.885714 3.062500 0.0
1.928571 3.062500 0.0
1.971429 3.062500 0.0
2.014286 3.062500 0.0
2.057143 3.062500 0.0
2.100000 3.062500 0.0
2.142857 3.062500 0.0
2.185714 3.062500 0.0
2.228571 3.062500 0.0
2.271429 3.062500 0.0
2.314286 3.062500 0.0
2.357143 3.062500 0.0
2.400000 3.062500 0.0
2.442857 3.062500 0.0
2.485714 3.062500 0.0
2.528571 3.062500 0.0
2.571429 3.062500 0.0
2.614286 3.062500 0.0
2.657143 3.062500 0.0
2.700000 3.062500 0.0
2.742857 3.062500 0.0
2.785714 3.062500 0.0
2.828571 3.062500 0.0
2.871429 3.062500 0.0
2.914286 3.062500 0.0
2.957143 3.062500 0.0
3.000000 3.062500 0.0
1.500000 3.106250 0.0
1.542857 3.106250 0.0
1.585714 3.106250 0.0
1.628571 3.106250 0.0
1.671429 3.106250 0.0
1.714286 3.106250 0.0
1.757143 3.106250 0.0
1.800000 3.106250 0.0
1.842857 3.106250 0.0
1.885714 3.106250 0.0
1.928571 3.106250 0.0
1.971429 3.106250 0.0
2.014286 3.106250 0.0
2.057143 3.106250 0.0
2.100000 3.106250 0.0
2.142857 3.106250 0.0
2.185714 3.106250 0.0
2.228571 3.106250 0.0
2.271429 3.106250 0.0
2.314286 3.106250 0.0
2.357143 3.106250 0.0
2.400000 3.106250 0.0
2.442857 3.106250 0.0
2.485714 3.106250 0.0
2.528571 3.106250 0.0
2.571429 3.106250 0.0
2.614286 3.106250 0.0
2.657143 3.106250 0.0
2.700000 3.106250 0.0
2.742857 3.106250 0.0
2.785714 3.106250 0.0
2.828571 3.106250 0.0
2.871429 3.106250 0.0
2.914286 3.106250 0.0
2.957143 3.106250 0.0
3.000000 3.106250 0.0
1.500000 3.150000 0.0
1.542857 3.150000 0.0
1.585714 3.150000 0.0
1.628571 3.150000 0.0
1.671429 3.150000 0.0
1.714286 3.150000 0.0
1.757143 3.150000 0.0
1.800000 3.150000 0.0
1.842857 3.150000 0.0
1.885714 3.150000 0.0
1.928571 3.150000 0.0
1.971429 3.150000 0.0
2.014286 3.150000 0.0
2.057143 3.150000 0.0
2.100000 3.150000 0.0
2.142857 3.150000 0.0
2.185714 3.150000 0.0
2.228571 3.150000 0.0
2.271429 3.150000 0.0
2.314286 3.150000 0.0
2.357143 3.150000 0.0
2.400000 3.150000 0.0
2.442857 3.150000 0.0
2.485714 3.150000 0.0
2.528571 3.150000 0.0
2.571429 3.150000 0.0
2.614286 3.150000 0.0
2.657143 3.150000 0.0
2.700000 3.150000 0.0
2.742857 3.150000 0.0
2.785714 3.150000 0.0
2.828571 3.150000 0.0
2.871429 3.150000 0.0
2.914286 3.150000 0.0
2.957143 3.150000 0.0
3.000000 3.150000 0.0
1.500000 3.193750 0.0
1.542857 3.193750 0.0
1.585714 3.193750 0.0
1.628571 3.193750 0.0
1.671429 3.193750 0.0
1.714286 3.193750 0.0
1.757143 3.193750 0.0
1.800000 3.193750 0.0
1.842857 3.193750 0.0
1.885714 3.193750 0.0
1.928571 3.193750 0.0
1.971429 3.193750 0.0
2.014286 3.193750 0.0
2.057143 3.193750 0.0
2.100000 3.193750 0.0
2.142857 3.193750 0.0
2.185714 3.193750 0.0
2.228571 3.193750 0.0
2.271429 3.193750 0.0
2.314286 3.193750 0.0
2.357143 3.193750 0.0
2.400000 3.193750 0.0
2.442857 3.193750 0.0
2.485714 3.193750 0.0
2.528571 3.193750 0.0
2.571429 3.193750 0.0
2.614286 3.193750 0.0
2.657143 3.193750 0.0
2.700000 3.193750 0.0
2.742857 3.193750 0.0
2.785714 3.193750 0.0
2.828571 3.193750 0.0
2.871429 3.193750 0.0
2.914286 3.193750 0.0
2.957143 3.193750 0.0
3.000000 3.193750 0.0
1.500000 3.237500 0.0
1.542857 3.237500 0.0
1.585714 3.237500 0.0
1.628571 3.237500 0.0
1.671429 3.237500 0.0
1.714286 3.237500 0.0
1.757143 3.237500 0.0
1.800000 3.237500 0.0
1.842857 3.237500 0.0
1.885714 3.237500 0.0
1.928571 3.237500 0.0
1.971429 3.237500 0.0
2.014286 3.237500 0.0
2.057143 3.237500 0.0
2.100000 3.237500 0.0
2.142857 3.237500 0.0
2.185714 3.237500 0.0
2.228571 3.237500 0.0
2.271429 3.237500 0.0
2.314286 3.237500 0.0
2.357143 3.237500 0.0
2.400000 3.237500 0.0
2.442857 3.237500 0.0
2.485714 3.237500 0.0
2.528571 3.237500 0.0
2.571429 3.237500 0.0
2.614286 3.237500 0.0
2.657143 3.237500 0.0
2.700000 3.237500 0.0
2.742857 3.237500 0.0
2.785714 3.237500 0.0
2.828571 3.237500 0.0
2.871429 3.237500 0.0
2.914286 3.237500 0.0
2.957143 3.237500 0.0
3.000000 3.237500 0.0
1.500000 3.281250 0.0
1.542857 3.281250 0.0
1.585714 3.281250 0.0
1.628571 3.281250 0.0
1.671429 3.281250 0.0
1.714286 3.281250 0.0
1.757143 3.281250 0.0
1.800000 3.281250 0.0
1.842857 3.281250 0.0
1.885714 3.281250 0.0
1.928571 3.281250 0.0
1.971429 3.281250 0.0
2.014286 3.281250 0.0
2.057143 3.281250 0.0
2.100000 3.281250 0.0
2.142857 3.281250 0.0
2.185714 3.281250 0.0
2.228571 3.281250 0.0
2.271429 3.281250 0.0
2.314286 3.281250 0.0
2.357143 3.281250 0.0
2.400000 3.281250 0.0
2.442857 3.281250 0.0
2.485714 3.281250 0.0
2.528571 3.281250 0.0
2.571429 3.281250 0.0
2.614286 3.281250 0.0
2.657143 3.281250 0.0
2.700000 3.281250 0.0
2.742857 3.281250 0.0
2.785714 3.281250 0.0
2.828571 3.281250 0.0
2.871429 3.281250 0.0
2.914286 3.281250 0.0
2.957143 3.281250 0.0
3.000000 3.281250 0.0
1.500000 3.325000 0.0
1.542857 3.325000 0.0
1.585714 3.325000 0.0
1.628571 3.325000 0.0
1.671429 3.325000 0.0
1.714286 3.325000 0.0
1.757143 3.325000 0.0
1.800000 3.325000 0.0
1.842857 3.325000 0.0
1.885714 3.325000 0.0
1.928571 3.325000 0.0
1.971429 3.325000 0.0
2.014286 3.325000 0.0
2.057143 3.325000 0.0
2.100000 3.325000 0.0
2.142857 3.325000 0.0
2.185714 3.325000 0.0
2.228571 3.325000 0.0
2.271429 3.325000 0.0
2.314286 3.325000 0.0
2.357143 3.325000 0.0
2.400000 3.325000 0.0
2.442857 3.325000 0.0
2.485714 3.325000 0.0
2.528571 3.325000 0.0
2.571429 3.325000 0.0
2.614286 3.325000 0.0
2.657143 3.325000 0.0
2.700000 3.325000 0.0
2.742857 3.325000 0.0
2.785714 3.325000 0.0
2.828571 3.325000 0.0
2.871429 3.325000 0.0
2.914286 3.325000 0.0
2.957143 3.325000 0.0
3.000000 3.325000 0.0
1.500000 3.368750 0.0
1.542857 3.368750 0.0
1.585714 3.368750 0.0
1.628571 3.368750 0.0
1.671429 3.368750 0.0
1.714286 3.368750 0.0
1.757143 3.368750 0.0
1.800000 3.368750 0.0
1.842857 3.368750 0.0
1.885714 3.368750 0.0
1.928571 3.368750 0.0
1.971429 3.368750 0.0
2.014286 3.368750 0.0
2.057143 3.368750 0.0
2.100000 3.368750 0.0
2.142857 3.368750 0.0
2.185714 3.368750 0.0
2.228571 3.368750 0.0
2.271429 3.368750 0.0
2.314286 3.368750 0.0
2.357143 3.368750 0.0
2.400000 3.368750 0.0
2.442857 3.368750 0.0
2.485714 3.368750 0.0
2.528571 3.368750 0.0
2.571429 3.368750 0.0
2.614286 3.368750 0.0
2.657143 3.368750 0.0
2.700000 3.368750 0.0
2.742857 3.368750 0.0
2.785714 3.368750 0.0
2.828571 3.368750 0.0
2.871429 3.368750 0.0
2.914286 3.368750 0.0
2.957143 3.368750 0.0
3.000000 3.368750 0.0
1.500000 3.412500 0.0
1.542857 3.412500 0.0
1.585714 3.412500 0.0
1.628571 3.412500 0.0
1.671429 3.412500 0.0
1.714286 3.412500 0.0
1.757143 3.412500 0.0
1.800000 3.412500 0.0
1.842857 3.412500 0.0
1.885714 3.412500 0.0
1.928571 3.412500 0.0
1.971429 3.412500 0.0
2.014286 3.412500 0.0
2.057143 3.412500 0.0
2.100000 3.412500 0.0
2.142857 3.412500 0.0
2.185714 3.412500 0.0
2.228571 3.412500 0.0
2.271429 3.412500 0.0
2.314286 3.412500 0.0
2.357143 3.412500 0.0
2.400000 3.412500 0.0
2.442857 3.412500 0.0
2.485714 3.412500 0.0
2.528571 3.412500 0.0
2.571429 3.412500 0.0
2.614286 3.412500 0.0
2.657143 3.412500 0.0
2.700000 3.412500 0.0
2.742857 3.412500 0.0
2.785714 3.412500 0.0
2.828571 3.412500 0.0
2.871429 3.412500 0.0
2.914286 3.412500 0.0
2.957143 3.412500 0.0
3.000000 3.412500 0.0
1.500000 3.456250 0.0
1.542857 3.456250 0.0
1.585714 3.456250 0.0
1.628571 3.456250 0.0
1.671429 3.456250 0.0
1.714286 3.456250 0.0
1.757143 3.456250 0.0
1.800000 3.456250 0.0
1.842857 3.456250 0.0
1.885714 3.456250 0.0
1.928571 3.456250 0.0
1.971429 3.456250 0.0
2.014286 3.456250 0.0
2.057143 3.456250 0.0
2.100000 3.456250 0.0
2.142857 3.456250 0.0
2.185714 3.456250 0.0
2.228571 3.456250 0.0
2.271429 3.456250 0.0
2.314286 3.456250 0.0
2.357143 3.456250 0.0
2.400000 3.456250 0.0
2.442857 3.456250 0.0
2.485714 3.456250 0.0
2.528571 3.456250 0.0
2.571429 3.456250 0.0
2.614286 3.456250 0.0
2.657143 3.456250 0.0
2.700000 3.456250 0.0
2.742857 3.456250 0.0
2.785714 3.456250 0.0
2.828571 3.456250 0.0
2.871429 3.456250 0.0
2.914286 3.456250 0.0
2.957143 3.456250 0.0
3.000000 3.456250 0.0
1.500000 3.500000 0.0
1.542857 3.500000 0.0
1.585714 3.500000 0.0
1.628571 3.500000 0.0
1.671429 3.500000 0.0
1.714286 3.500000 0.0
1.757143 3.500000 0.0
1.800000 3.500000 0.0
1.842857 3.500000 0.0
1.885714 3.500000 0.0
1.928571 3.500000 0.0
1.971429 3.500000 0.0
2.014286 3.500000 0.0
2.057143 3.500000 0.0
2.100000 3.500000 0.0
2.142857 3.500000 0.0
2.185714 3.500000 0.0
2.228571 3.500000 0.0
2.271429 3.500000 0.0
2.314286 3.500000 0.0
2.357143 3.500000 0.0
2.400000 3.500000 0.0
2.442857 3.500000 0.0
2.485714 3.500000 0.0
2.528571 3.500000 0.0
2.571429 3.500000 0.0
2.614286 3.500000 0.0
2.657143 3.500000 0.0
2.700000 3.500000 0.0
2.742857 3.500000 0.0
2.785714 3.500000 0.0
2.828571 3.500000 0.0
2.871429 3.500000 0.0
2.914286 3.500000 0.0
2.957143 3.500000 0.0
3.000000 3.500000 0.0
</DataArray></Points>
<PointData>
<DataArray NumberOfComponents="1" format="ascii" type ="Float32" Name="phi">
-0.221369
-0.221050
-0.223554
-0.228702
-0.236542
-0.239459
-0.229931
-0.204436
-0.169696
-0.135539
-0.101339
-0.066904
-0.031308
-0.003104
0.008139
0.006046
-0.005035
-0.024787
-0.047958
-0.068718
-0.085964
-0.097694
-0.104418
-0.109620
-0.114560
-0.120451
-0.124627
-0.123355
-0.119103
-0.115944
-0.114416
-0.112625
-0.110314
-0.108705
-0.109464
-0.121446
-0.265094
-0.264791
-0.267023
-0.266466
-0.259776
-0.242802
-0.213164
-0.178523
-0.143588
-0.108946
-0.074901
-0.040863
-0.009790
0.006257
0.004828
-0.007416
-0.028734
-0.056205
-0.083891
-0.107539
-0.126634
-0.139989
-0.147691
-0.153024
-0.158019
-0.163694
-0.167337
-0.165415
-0.161793
-0.159663
-0.158128
-0.156321
-0.154015
-0.152419
-0.153188
-0.154248
-0.273761
-0.274311
-0.272183
-0.263622
-0.244177
-0.217201
-0.186442
-0.153027
-0.118074
-0.082763
-0.047985
-0.015836
0.003281
0.003690
-0.009379
-0.031849
-0.059305
-0.088156
-0.116734
-0.143308
-0.165664
-0.181695
-0.190815
-0.196429
-0.201489
-0.207001
-0.210345
-0.208260
-0.205043
-0.203386
-0.201843
-0.200018
-0.197718
-0.196134
-0.196911
-0.197984
-0.238934
-0.240241
-0.234236
-0.224201
-0.207884
-0.184481
-0.157286
-0.126801
-0.093241
-0.058208
-0.022787
0.001094
0.003446
-0.010238
-0.034616
-0.063333
-0.091915
-0.120595
-0.149276
-0.177204
-0.202525
-0.222149
-0.233571
-0.239801
-0.244958
-0.250353
-0.253587
-0.251691
-0.248693
-0.247108
-0.245557
-0.243716
-0.241421
-0.239850
-0.240634
-0.241719
-0.195636
-0.196843
-0.191312
-0.182856
-0.169510
-0.148943
-0.124510
-0.097926
-0.067120
-0.030812
-0.001644
0.004776
-0.009112
-0.034051
-0.064325
-0.094902
-0.124172
-0.153067
-0.181838
-0.210270
-0.237435
-0.260635
-0.275467
-0.283070
-0.288392
-0.293712
-0.296915
-0.295236
-0.292403
-0.290829
-0.289270
-0.287413
-0.285125
-0.283566
-0.284357
-0.285455
-0.152239
-0.153523
-0.148324
-0.140693
-0.129795
-0.112056
-0.089262
-0.064815
-0.034361
-0.003197
0.007208
-0.006346
-0.032482
-0.063050
-0.094242
-0.125278
-0.155620
-0.185160
-0.214220
-0.242966
-0.271073
-0.296958
-0.315939
-0.326090
-0.331782
-0.337062
-0.340284
-0.338812
-0.336118
-0.334549
-0.332982
-0.331110
-0.328829
-0.327282
-0.328080
-0.329189
-0.108779
-0.110288
-0.105357
-0.098018
-0.088744
-0.074412
-0.053545
-0.026375
0.000285
0.010967
-0.002305
-0.030083
-0.061675
-0.092965
-0.124218
-0.155404
-0.186300
-0.216603
-0.246234
-0.275374
-0.304035
-0.331532
-0.354473
-0.368340
-0.375107
-0.380425
-0.383687
-0.382409
-0.379831
-0.378266
-0.376693
-0.374806
-0.372534
-0.370998
-0.371802
-0.372924
-0.065398
-0.067264
-0.062570
-0.055262
-0.046609
-0.032469
-0.011713
0.010006
0.017592
0.003167
-0.026188
-0.059067
-0.091123
-0.122716
-0.154124
-0.185413
-0.216552
-0.247379
-0.277673
-0.307371
-0.336538
-0.364962
-0.390863
-0.409130
-0.418242
-0.423794
-0.427124
-0.426022
-0.423543
-0.421983
-0.420403
-0.418502
-0.416240
-0.414714
-0.415524
-0.416658
-0.017209
-0.019328
-0.015501
-0.008420
-0.000578
0.010514
0.022016
0.023964
0.007734
-0.022151
-0.055249
-0.087660
-0.119992
-0.152054
-0.183792
-0.215281
-0.246601
-0.277724
-0.308510
-0.338806
-0.368550
-0.397664
-0.425404
-0.447931
-0.460703
-0.467147
-0.470604
-0.469646
-0.467254
-0.465699
-0.464113
-0.462198
-0.459946
-0.458430
-0.459246
-0.460391
0.022943
0.021701
0.022408
0.025855
0.029831
0.030951
0.025657
0.008160
-0.020733
-0.052711
-0.084251
-0.116421
-0.148752
-0.181025
-0.213086
-0.244889
-0.276452
-0.307804
-0.338910
-0.369675
-0.399984
-0.429734
-0.458605
-0.484503
-0.501765
-0.510402
-0.514154
-0.513280
-0.510964
-0.509416
-0.507822
-0.505893
-0.503653
-0.502147
-0.502968
-0.504124
0.034676
0.034603
0.032450
0.031085
0.029521
0.020706
0.002485
-0.024414
-0.053907
-0.083372
-0.114011
-0.145577
-0.177643
-0.209900
-0.242112
-0.274167
-0.306008
-0.337622
-0.369005
-0.400113
-0.430867
-0.461175
-0.490854
-0.518955
-0.540838
-0.553175
-0.557722
-0.556924
-0.554676
-0.553132
-0.551531
-0.549588
-0.547360
-0.545864
-0.546689
-0.547857
0.021549
0.021977
0.018732
0.013544
0.005693
-0.010272
-0.033917
-0.060295
-0.086979
-0.115172
-0.144696
-0.175378
-0.206885
-0.238897
-0.271080
-0.303224
-0.335257
-0.367127
-0.398790
-0.430203
-0.461320
-0.492077
-0.522353
-0.551736
-0.577537
-0.594673
-0.601174
-0.600577
-0.598390
-0.596850
-0.595238
-0.593282
-0.591068
-0.589581
-0.590410
-0.591589
-0.010663
-0.009904
-0.013847
-0.021743
-0.033208
-0.050267
-0.071729
-0.095584
-0.121110
-0.148100
-0.176457
-0.206074
-0.236754
-0.268227
-0.300158
-0.332254
-0.364341
-0.396355
-0.428249
-0.459955
-0.491404
-0.522536
-0.553279
-0.583453
-0.611847
-0.633955
-0.644121
-0.644286
-0.642105
-0.640567
-0.638944
-0.636977
-0.634776
-0.633297
-0.634131
-0.635321
-0.053429
-0.052625
-0.056487
-0.064384
-0.075161
-0.090042
-0.109386
-0.131800
-0.156146
-0.182061
-0.209312
-0.237788
-0.267446
-0.298130
-0.329555
-0.361411
-0.393432
-0.425475
-0.457480
-0.489378
-0.521094
-0.552568
-0.583732
-0.614471
-0.644285
-0.670498
-0.685766
-0.688006
-0.685820
-0.684284
-0.682650
-0.680671
-0.678485
-0.677015
-0.677852
-0.679053
-0.097072
-0.096332
-0.099852
-0.107171
-0.117199
-0.130627
-0.148076
-0.168912
-0.192062
-0.216915
-0.243080
-0.270456
-0.299069
-0.328823
-0.359507
-0.390880
-0.422673
-0.454640
-0.486639
-0.518601
-0.550477
-0.582214
-0.613727
-0.644911
-0.675545
-0.704432
-0.725287
-0.731362
-0.729534
-0.728001
-0.726355
-0.724366
-0.722194
-0.720732
-0.721572
-0.722784
-0.140745
-0.140060
-0.143287
-0.150093
-0.159483
-0.171821
-0.187670
-0.206935
-0.228817
-0.252516
-0.277613
-0.304040
-0.331713
-0.360474
-0.390224
-0.420881
-0.452228
-0.483951
-0.515840
-0.547794
-0.579730
-0.611597
-0.643330
-0.674853
-0.706040
-0.736380
-0.762117
-0.773525
-0.773252
-0.771718
-0.770060
-0.768060
-0.765904
-0.764449
-0.765293
-0.766514
-0.184446
-0.183810
-0.186783
-0.193127
-0.201955
-0.213435
-0.227979
-0.245775
-0.266307
-0.288810
-0.312948
-0.338535
-0.365287
-0.393029
-0.421781
-0.451581
-0.482272
-0.513554
-0.545198
-0.577048
-0.608964
-0.640861
-0.672704
-0.704449
-0.736001
-0.767106
-0.796093
-0.813670
-0.816915
-0.815434
-0.813763
-0.811754
-0.809614
-0.808167
-0.809013
-0.810245
-0.228170
-0.227576
-0.230328
-0.236262
-0.244590
-0.255354
-0.268834
-0.285283
-0.304462
-0.325861
-0.349110
-0.373784
-0.399546
-0.426312
-0.454163
-0.483113
-0.513002
-0.543653
-0.574873
-0.606463
-0.638256
-0.670129
-0.702012
-0.733859
-0.765601
-0.797112
-0.827759
-0.851340
-0.859924
-0.859152
-0.857466
-0.855449
-0.853325
-0.851884
-0.852733
-0.853975
-0.271916
-0.271358
-0.273916
-0.279485
-0.287362
-0.297513
-0.310119
-0.325392
-0.343343
-0.363705
-0.385965
-0.409599
-0.434386
-0.460335
-0.487447
-0.515571
-0.544567
-0.574410
-0.605012
-0.636174
-0.667717
-0.699486
-0.731344
-0.763203
-0.795017
-0.826726
-0.858091
-0.886153
-0.901124
-0.902848
-0.901167
-0.899143
-0.897035
-0.895601
-0.896453
-0.897706
-0.315680
-0.315155
-0.317541
-0.322779
-0.330247
-0.339857
-0.351725
-0.366015
-0.382888
-0.402180
-0.423329
-0.445913
-0.469859
-0.495143
-0.521539
-0.548807
-0.576892
-0.605867
-0.635741
-0.666349
-0.697502
-0.729029
-0.760757
-0.792565
-0.824390
-0.856187
-0.887857
-0.918396
-0.939900
-0.946239
-0.944868
-0.942837
-0.940746
-0.939319
-0.940173
-0.941436
-0.337566
-0.337057
-0.339361
-0.344442
-0.351714
-0.361069
-0.372593
-0.386435
-0.402795
-0.421540
-0.442122
-0.464196
-0.487768
-0.512737
-0.538747
-0.565577
-0.593216
-0.621766
-0.651268
-0.681576
-0.712497
-0.743860
-0.775491
-0.807258
-0.839079
-0.870902
-0.902671
-0.933997
-0.958683
-0.967794
-0.966718
-0.964684
-0.962602
-0.961177
-0.962033
-0.963301
</DataArray>
<DataArray NumberOfComponents="1" format="ascii" type ="Float32" Name="u">
0.004930
0.006309
0.007612
0.008869
0.010115
0.011396
0.012789
0.014426
0.016574
0.019763
0.025054
0.034005
0.045583
0.054429
0.056397
0.053558
0.049129
0.045725
0.042074
0.039765
0.037299
0.034798
0.032935
0.031545
0.030425
0.029471
0.028660
0.027974
0.027398
0.026921
0.026541
0.026269
0.026126
0.026110
0.026143
0.026143
0.004393
0.005893
0.007329
0.008738
0.010162
0.011658
0.013322
0.015328
0.018040
0.022204
0.029254
0.040488
0.052203
0.056787
0.054488
0.049458
0.045172
0.042072
0.039158
0.036875
0.034686
0.032721
0.031234
0.030156
0.029312
0.028617
0.028037
0.027553
0.027151
0.026822
0.026571
0.026411
0.026351
0.026368
0.026397
0.026397
0.003602
0.005229
0.006809
0.008384
0.010006
0.011747
0.013731
0.016200
0.019663
0.025169
0.034404
0.047295
0.055711
0.054694
0.049473
0.044581
0.041180
0.038359
0.035984
0.034049
0.032312
0.030857
0.029782
0.029015
0.028428
0.027953
0.027559
0.027231
0.026959
0.026741
0.026586
0.026506
0.026499
0.026533
0.026559
0.026559
0.002594
0.004368
0.006114
0.007879
0.009726
0.011752
0.014129
0.017188
0.021649
0.028863
0.040651
0.052080
0.053981
0.049144
0.043935
0.040196
0.037314
0.035010
0.033189
0.031709
0.030445
0.029436
0.028706
0.028190
0.027800
0.027486
0.027226
0.027009
0.026829
0.026693
0.026610
0.026587
0.026614
0.026657
0.026681
0.026681
0.001414
0.003366
0.005310
0.007298
0.009407
0.011771
0.014642
0.018457
0.024170
0.033775
0.046217
0.051613
0.048219
0.043150
0.039270
0.036314
0.034080
0.032381
0.031075
0.030024
0.029157
0.028484
0.028002
0.027658
0.027398
0.027189
0.027015
0.026871
0.026757
0.026680
0.026650
0.026666
0.026712
0.026758
0.026780
0.026780
0.000109
0.002280
0.004464
0.006710
0.009118
0.011877
0.015409
0.020140
0.027722
0.038833
0.047356
0.046472
0.042122
0.038385
0.035471
0.033310
0.031726
0.030556
0.029663
0.028946
0.028362
0.027912
0.027584
0.027346
0.027163
0.027015
0.026894
0.026798
0.026729
0.026696
0.026702
0.026742
0.026797
0.026842
0.026861
0.026861
-0.001310
0.001130
0.003615
0.006165
0.008910
0.012060
0.016594
0.022618
0.031646
0.040913
0.043548
0.040716
0.037487
0.034774
0.032741
0.031267
0.030203
0.029419
0.028814
0.028319
0.027914
0.027595
0.027355
0.027174
0.027033
0.026921
0.026833
0.026769
0.026733
0.026730
0.026759
0.026811
0.026866
0.026906
0.026921
0.026921
-0.002836
-0.000071
0.002755
0.005713
0.008959
0.012816
0.018186
0.025411
0.033827
0.039036
0.038440
0.036370
0.034139
0.032335
0.030994
0.030019
0.029306
0.028767
0.028336
0.027974
0.027669
0.027423
0.027230
0.027080
0.026963
0.026872
0.026806
0.026766
0.026753
0.026769
0.026811
0.026864
0.026914
0.026947
0.026958
0.026958
-0.004262
-0.001170
0.002016
0.005485
0.009438
0.014302
0.019987
0.027182
0.033381
0.035483
0.034757
0.033422
0.032006
0.030849
0.029966
0.029301
0.028797
0.028397
0.028064
0.027775
0.027526
0.027318
0.027151
0.027019
0.026918
0.026843
0.026793
0.026769
0.026772
0.026799
0.026844
0.026893
0.026934
0.026959
0.026967
0.026967
-0.004921
-0.001522
0.002031
0.005917
0.010388
0.015827
0.021365
0.027488
0.031557
0.032848
0.032601
0.031710
0.030778
0.029991
0.029367
0.028877
0.028486
0.028162
0.027882
0.027633
0.027415
0.027231
0.027081
0.026962
0.026873
0.026810
0.026772
0.026760
0.026771
0.026802
0.026843
0.026884
0.026916
0.026933
0.026938
0.026938
-0.004730
-0.001004
0.002910
0.006965
0.011505
0.016933
0.022135
0.027184
0.030367
0.031565
0.031377
0.030726
0.030044
0.029454
0.028970
0.028576
0.028249
0.027968
0.027718
0.027494
0.027296
0.027128
0.026990
0.026882
0.026802
0.026748
0.026718
0.026712
0.026725
0.026753
0.026787
0.026818
0.026840
0.026850
0.026852
0.026852
-0.004124
-0.000150
0.004005
0.008202
0.012755
0.017798
0.023108
0.027412
0.030026
0.030789
0.030569
0.030045
0.029505
0.029031
0.028631
0.028296
0.028008
0.027753
0.027524
0.027316
0.027132
0.026975
0.026846
0.026745
0.026671
0.026621
0.026594
0.026588
0.026597
0.026617
0.026640
0.026660
0.026672
0.026677
0.026676
0.026676
-0.003379
0.000732
0.004939
0.009450
0.014325
0.019131
0.024202
0.027797
0.029632
0.030079
0.029858
0.029434
0.028999
0.028607
0.028266
0.027970
0.027707
0.027469
0.027251
0.027052
0.026875
0.026724
0.026599
0.026499
0.026425
0.026374
0.026343
0.026330
0.026331
0.026338
0.026348
0.026355
0.026357
0.026356
0.026353
0.026353
-0.003077
0.001319
0.005761
0.010595
0.015671
0.020466
0.024788
0.027668
0.029006
0.029304
0.029126
0.028793
0.028439
0.028107
0.027806
0.027532
0.027280
0.027045
0.026828
0.026628
0.026450
0.026296
0.026166
0.026061
0.025980
0.025920
0.025879
0.025853
0.025838
0.025830
0.025823
0.025817
0.025809
0.025801
0.025795
0.025795
-0.003235
0.001600
0.006476
0.011525
0.016539
0.021142
0.024865
0.027177
0.028204
0.028439
0.028307
0.028040
0.027737
0.027436
0.027148
0.026874
0.026614
0.026367
0.026136
0.025923
0.025732
0.025564
0.025420
0.025301
0.025204
0.025128
0.025070
0.025026
0.024992
0.024964
0.024940
0.024918
0.024899
0.024884
0.024874
0.024874
-0.003466
0.001755
0.006969
0.012161
0.017087
0.021356
0.024528
0.026392
0.027203
0.027390
0.027273
0.027026
0.026731
0.026422
0.026113
0.025812
0.025521
0.025244
0.024983
0.024742
0.024525
0.024333
0.024167
0.024026
0.023908
0.023810
0.023730
0.023664
0.023608
0.023560
0.023518
0.023481
0.023451
0.023429
0.023417
0.023417
-0.003708
0.001807
0.007254
0.012487
0.017214
0.021057
0.023718
0.025203
0.025817
0.025918
0.025755
0.025467
0.025125
0.024763
0.024399
0.024043
0.023700
0.023376