<VTKFile type="StructuredGrid" version="0.1" byte_order="LittleEndian">
<StructuredGrid WholeExtent="1 71 1 81 0 0">
<Piece Extent="36 71 21 41 0 0">
<PointData></PointData>
<CellData></CellData>
<Points>
<DataArray NumberOfComponents="3" format="ascii" type ="Float32" Name="mesh">
1.500000 0.875000 0.0
1.542857 0.875000 0.0
1.585714 0.875000 0.0
1.628571 0.875000 0.0
1.671429 0.875000 0.0
1.714286 0.875000 0.0
1.757143 0.875000 0.0
1.800000 0.875000 0.0
1.842857 0.875000 0.0
1.885714 0.875000 0.0
1.928571 0.875000 0.0
1.971429 0.875000 0.0
2.014286 0.875000 0.0
2.057143 0.875000 0.0
2.100000 0.875000 0.0
2.142857 0.875000 0.0
2.185714 0.875000 0.0
2.228571 0.875000 0.0
2.271429 0.875000 0.0
2.314286 0.875000 0.0
2.357143 0.875000 0.0
2.400000 0.875000 0.0
2.442857 0.875000 0.0
2.485714 0.875000 0.0
2.528571 0.875000 0.0
2.571429 0.875000 0.0
2.614286 0.875000 0.0
2.657143 0.875000 0.0
2.700000 0.875000 0.0
2.742857 0.875000 0.0
2.785714 0.875000 0.0
2.828571 0.875000 0.0
2.871429 0.875000 0.0
2.914286 0.875000 0.0
2.957143 0.875000 0.0
3.000000 0.875000 0.0
1.500000 0.918750 0.0
1.542857 0.918750 0.0
1.585714 0.918750 0.0
1.628571 0.918750 0.0
1.671429 0.918750 0.0
1.714286 0.918750 0.0
1.757143 0.918750 0.0
1.800000 0.918750 0.0
1.842857 0.918750 0.0
1.885714 0.918750 0.0
1.928571 0.918750 0.0
1.971429 0.918750 0.0
2.014286 0.918750 0.0
2.057143 0.918750 0.0
2.100000 0.918750 0.0
2.142857 0.918750 0.0
2.185714 0.918750 0.0
2.228571 0.918750 0.0
2.271429 0.918750 0.0
2.314286 0.918750 0.0
2.357143 0.918750 0.0
2.400000 0.918750 0.0
2.442857 0.918750 0.0
2.485714 0.918750 0.0
2.528571 0.918750 0.0
2.571429 0.918750 0.0
2.614286 0.918750 0.0
2.657143 0.918750 0.0
2.700000 0.918750 0.0
2.742857 0.918750 0.0
2.785714 0.918750 0.0
2.828571 0.918750 0.0
2.871429 0.918750 0.0
2.914286 0.918750 0.0
2.957143 0.918750 0.0
3.000000 0.918750 0.0
1.500000 0.962500 0.0
1.542857 0.962500 0.0
1.585714 0.962500 0.0
1.628571 0.962500 0.0
1.671429 0.962500 0.0
1.714286 0.962500 0.0
1.757143 0.962500 0.0
1.800000 0.962500 0.0
1.842857 0.962500 0.0
1.885714 0.962500 0.0
1.928571 0.962500 0.0
1.971429 0.962500 0.0
2.014286 0.962500 0.0
2.057143 0.962500 0.0
2.100000 0.962500 0.0
2.142857 0.962500 0.0
2.185714 0.962500 0.0
2.228571 0.962500 0.0
2.271429 0.962500 0.0
2.314286 0.962500 0.0
2.357143 0.962500 0.0
2.400000 0.962500 0.0
2.442857 0.962500 0.0
2.485714 0.962500 0.0
2.528571 0.962500 0.0
2.571429 0.962500 0.0
2.614286 0.962500 0.0
2.657143 0.962500 0.0
2.700000 0.962500 0.0
2.742857 0.962500 0.0
2.785714 0.962500 0.0
2.828571 0.962500 0.0
2.871429 0.962500 0.0
2.914286 0.962500 0.0
2.957143 0.962500 0.0
3.000000 0.962500 0.0
1.500000 1.006250 0.0
1.542857 1.006250 0.0
1.585714 1.006250 0.0
1.628571 1.006250 0.0
1.671429 1.006250 0.0
1.714286 1.006250 0.0
1.757143 1.006250 0.0
1.800000 1.006250 0.0
1.842857 1.006250 0.0
1.885714 1.006250 0.0
1.928571 1.006250 0.0
1.971429 1.006250 0.0
2.014286 1.006250 0.0
2.057143 1.006250 0.0
2.100000 1.006250 0.0
2.142857 1.006250 0.0
2.185714 1.006250 0.0
2.228571 1.006250 0.0
2.271429 1.006250 0.0
2.314286 1.006250 0.0
2.357143 1.006250 0.0
2.400000 1.006250 0.0
2.442857 1.006250 0.0
2.485714 1.006250 0.0
2.528571 1.006250 0.0
2.571429 1.006250 0.0
2.614286 1.006250 0.0
2.657143 1.006250 0.0
2.700000 1.006250 0.0
2.742857 1.006250 0.0
2.785714 1.006250 0.0
2.828571 1.006250 0.0
2.871429 1.006250 0.0
2.914286 1.006250 0.0
2.957143 1.006250 0.0
3.000000 1.006250 0.0
1.500000 1.050000 0.0
1.542857 1.050000 0.0
1.585714 1.050000 0.0
1.628571 1.050000 0.0
1.671429 1.050000 0.0
1.714286 1.050000 0.0
1.757143 1.050000 0.0
1.800000 1.050000 0.0
1.842857 1.050000 0.0
1.885714 1.050000 0.0
1.928571 1.050000 0.0
1.971429 1.050000 0.0
2.014286 1.050000 0.0
2.057143 1.050000 0.0
2.100000 1.050000 0.0
2.142857 1.050000 0.0
2.185714 1.050000 0.0
2.228571 1.050000 0.0
2.271429 1.050000 0.0
2.314286 1.050000 0.0
2.357143 1.050000 0.0
2.400000 1.050000 0.0
2.442857 1.050000 0.0
2.485714 1.050000 0.0
2.528571 1.050000 0.0
2.571429 1.050000 0.0
2.614286 1.050000 0.0
2.657143 1.050000 0.0
2.700000 1.050000 0.0
2.742857 1.050000 0.0
2.785714 1.050000 0.0
2.828571 1.050000 0.0
2.871429 1.050000 0.0
2.914286 1.050000 0.0
2.957143 1.050000 0.0
3.000000 1.050000 0.0
1.500000 1.093750 0.0
1.542857 1.093750 0.0
1.585714 1.093750 0.0
1.628571 1.093750 0.0
1.671429 1.093750 0.0
1.714286 1.093750 0.0
1.757143 1.093750 0.0
1.800000 1.093750 0.0
1.842857 1.093750 0.0
1.885714 1.093750 0.0
1.928571 1.093750 0.0
1.971429 1.093750 0.0
2.014286 1.093750 0.0
2.057143 1.093750 0.0
2.100000 1.093750 0.0
2.142857 1.093750 0.0
2.185714 1.093750 0.0
2.228571 1.093750 0.0
2.271429 1.093750 0.0
2.314286 1.093750 0.0
2.357143 1.093750 0.0
2.400000 1.093750 0.0
2.442857 1.093750 0.0
2.485714 1.093750 0.0
2.528571 1.093750 0.0
2.571429 1.093750 0.0
2.614286 1.093750 0.0
2.657143 1.093750 0.0
2.700000 1.093750 0.0
2.742857 1.093750 0.0
2.785714 1.093750 0.0
2.828571 1.093750 0.0
2.871429 1.093750 0.0
2.914286 1.093750 0.0
2.957143 1.093750 0.0
3.000000 1.093750 0.0
1.500000 1.137500 0.0
1.542857 1.137500 0.0
1.585714 1.137500 0.0
1.628571 1.137500 0.0
1.671429 1.137500 0.0
1.714286 1.137500 0.0
1.757143 1.137500 0.0
1.800000 1.137500 0.0
1.842857 1.137500 0.0
1.885714 1.137500 0.0
1.928571 1.137500 0.0
1.971429 1.137500 0.0
2.014286 1.137500 0.0
2.057143 1.137500 0.0
2.100000 1.137500 0.0
2.142857 1.137500 0.0
2.185714 1.137500 0.0
2.228571 1.137500 0.0
2.271429 1.137500 0.0
2.314286 1.137500 0.0
2.357143 1.137500 0.0
2.400000 1.137500 0.0
2.442857 1.137500 0.0
2.485714 1.137500 0.0
2.528571 1.137500 0.0
2.571429 1.137500 0.0
2.614286 1.137500 0.0
2.657143 1.137500 0.0
2.700000 1.137500 0.0
2.742857 1.137500 0.0
2.785714 1.137500 0.0
2.828571 1.137500 0.0
2.871429 1.137500 0.0
2.914286 1.137500 0.0
2.957143 1.137500 0.0
3.000000 1.137500 0.0
1.500000 1.181250 0.0
1.542857 1.181250 0.0
1.585714 1.181250 0.0
1.628571 1.181250 0.0
1.671429 1.181250 0.0
1.714286 1.181250 0.0
1.757143 1.181250 0.0
1.800000 1.181250 0.0
1.842857 1.181250 0.0
1.885714 1.181250 0.0
1.928571 1.181250 0.0
1.971429 1.181250 0.0
2.014286 1.181250 0.0
2.057143 1.181250 0.0
2.100000 1.181250 0.0
2.142857 1.181250 0.0
2.185714 1.181250 0.0
2.228571 1.181250 0.0
2.271429 1.181250 0.0
2.314286 1.181250 0.0
2.357143 1.181250 0.0
2.400000 1.181250 0.0
2.442857 1.181250 0.0
2.485714 1.181250 0.0
2.528571 1.181250 0.0
2.571429 1.181250 0.0
2.614286 1.181250 0.0
2.657143 1.181250 0.0
2.700000 1.181250 0.0
2.742857 1.181250 0.0
2.785714 1.181250 0.0
2.828571 1.181250 0.0
2.871429 1.181250 0.0
2.914286 1.181250 0.0
2.957143 1.181250 0.0
3.000000 1.181250 0.0
1.500000 1.225000 0.0
1.542857 1.225000 0.0
1.585714 1.225000 0.0
1.628571 1.225000 0.0
1.671429 1.225000 0.0
1.714286 1.225000 0.0
1.757143 1.225000 0.0
1.800000 1.225000 0.0
1.842857 1.225000 0.0
1.885714 1.225000 0.0
1.928571 1.225000 0.0
1.971429 1.225000 0.0
2.014286 1.225000 0.0
2.057143 1.225000 0.0
2.100000 1.225000 0.0
2.142857 1.225000 0.0
2.185714 1.225000 0.0
2.228571 1.225000 0.0
2.271429 1.225000 0.0
2.314286 1.225000 0.0
2.357143 1.225000 0.0
2.400000 1.225000 0.0
2.442857 1.225000 0.0
2.485714 1.225000 0.0
2.528571 1.225000 0.0
2.571429 1.225000 0.0
2.614286 1.225000 0.0
2.657143 1.225000 0.0
2.700000 1.225000 0.0
2.742857 1.225000 0.0
2.785714 1.225000 0.0
2.828571 1.225000 0.0
2.871429 1.225000 0.0
2.914286 1.225000 0.0
2.957143 1.225000 0.0
3.000000 1.225000 0.0
1.500000 1.268750 0.0
1.542857 1.268750 0.0
1.585714 1.268750 0.0
1.628571 1.268750 0.0
1.671429 1.268750 0.0
1.714286 1.268750 0.0
1.757143 1.268750 0.0
1.800000 1.268750 0.0
1.842857 1.268750 0.0
1.885714 1.268750 0.0
1.928571 1.268750 0.0
1.971429 1.268750 0.0
2.014286 1.268750 0.0
2.057143 1.268750 0.0
2.100000 1.268750 0.0
2.142857 1.268750 0.0
2.185714 1.268750 0.0
2.228571 1.268750 0.0
2.271429 1.268750 0.0
2.314286 1.268750 0.0
2.357143 1.268750 0.0
2.400000 1.268750 0.0
2.442857 1.268750 0.0
2.485714 1.268750 0.0
2.528571 1.268750 0.0
2.571429 1.268750 0.0
2.614286 1.268750 0.0
2.657143 1.268750 0.0
2.700000 1.268750 0.0
2.742857 1.268750 0.0
2.785714 1.268750 0.0
2.828571 1.268750 0.0
2.871429 1.268750 0.0
2.914286 1.268750 0.0
2.957143 1.268750 0.0
3.000000 1.268750 0.0
1.500000 1.312500 0.0
1.542857 1.312500 0.0
1.585714 1.312500 0.0
1.628571 1.312500 0.0
1.671429 1.312500 0.0
1.714286 1.312500 0.0
1.757143 1.312500 0.0
1.800000 1.312500 0.0
1.842857 1.312500 0.0
1.885714 1.312500 0.0
1.928571 1.312500 0.0
1.971429 1.312500 0.0
2.014286 1.312500 0.0
2.057143 1.312500 0.0
2.100000 1.312500 0.0
2.142857 1.312500 0.0
2.185714 1.312500 0.0
2.228571 1.312500 0.0
2.271429 1.312500 0.0
2.314286 1.312500 0.0
2.357143 1.312500 0.0
2.400000 1.312500 0.0
2.442857 1.312500 0.0
2.485714 1.312500 0.0
2.528571 1.312500 0.0
2.571429 1.312500 0.0
2.614286 1.312500 0.0
2.657143 1.312500 0.0
2.700000 1.312500 0.0
2.742857 1.312500 0.0
2.785714 1.312500 0.0
2.828571 1.312500 0.0
2.871429 1.312500 0.0
2.914286 1.312500 0.0
2.957143 1.312500 0.0
3.000000 1.312500 0.0
1.500000 1.356250 0.0
1.542857 1.356250 0.0
1.585714 1.356250 0.0
1.628571 1.356250 0.0
1.671429 1.356250 0.0
1.714286 1.356250 0.0
1.757143 1.356250 0.0
1.800000 1.356250 0.0
1.842857 1.356250 0.0
1.885714 1.356250 0.0
1.928571 1.356250 0.0
1.971429 1.356250 0.0
2.014286 1.356250 0.0
2.057143 1.356250 0.0
2.100000 1.356250 0.0
2.142857 1.356250 0.0
2.185714 1.356250 0.0
2.228571 1.356250 0.0
2.271429 1.356250 0.0
2.314286 1.356250 0.0
2.357143 1.356250 0.0
2.400000 1.356250 0.0
2.442857 1.356250 0.0
2.485714 1.356250 0.0
2.528571 1.356250 0.0
2.571429 1.356250 0.0
2.614286 1.356250 0.0
2.657143 1.356250 0.0
2.700000 1.356250 0.0
2.742857 1.356250 0.0
2.785714 1.356250 0.0
2.828571 1.356250 0.0
2.871429 1.356250 0.0
2.914286 1.356250 0.0
2.957143 1.356250 0.0
3.000000 1.356250 0.0
1.500000 1.400000 0.0
1.542857 1.400000 0.0
1.585714 1.400000 0.0
1.628571 1.400000 0.0
1.671429 1.400000 0.0
1.714286 1.400000 0.0
1.757143 1.400000 0.0
1.800000 1.400000 0.0
1.842857 1.400000 0.0
1.885714 1.400000 0.0
1.928571 1.400000 0.0
1.971429 1.400000 0.0
2.014286 1.400000 0.0
2.057143 1.400000 0.0
2.100000 1.400000 0.0
2.142857 1.400000 0.0
2.185714 1.400000 0.0
2.228571 1.400000 0.0
2.271429 1.400000 0.0
2.314286 1.400000 0.0
2.357143 1.400000 0.0
2.400000 1.400000 0.0
2.442857 1.400000 0.0
2.485714 1.400000 0.0
2.528571 1.400000 0.0
2.571429 1.400000 0.0
2.614286 1.400000 0.0
2.657143 1.400000 0.0
2.700000 1.400000 0.0
2.742857 1.400000 0.0
2.785714 1.400000 0.0
2.828571 1.400000 0.0
2.871429 1.400000 0.0
2.914286 1.400000 0.0
2.957143 1.400000 0.0
3.000000 1.400000 0.0
1.500000 1.443750 0.0
1.542857 1.443750 0.0
1.585714 1.443750 0.0
1.628571 1.443750 0.0
1.671429 1.443750 0.0
1.714286 1.443750 0.0
1.757143 1.443750 0.0
1.800000 1.443750 0.0
1.842857 1.443750 0.0
1.885714 1.443750 0.0
1.928571 1.443750 0.0
1.971429 1.443750 0.0
2.014286 1.443750 0.0
2.057143 1.443750 0.0
2.100000 1.443750 0.0
2.142857 1.443750 0.0
2.185714 1.443750 0.0
2.228571 1.443750 0.0
2.271429 1.443750 0.0
2.314286 1.443750 0.0
2.357143 1.443750 0.0
2.400000 1.443750 0.0
2.442857 1.443750 0.0
2.485714 1.443750 0.0
2.528571 1.443750 0.0
2.571429 1.443750 0.0
2.614286 1.443750 0.0
2.657143 1.443750 0.0
2.700000 1.443750 0.0
2.742857 1.443750 0.0
2.785714 1.443750 0.0
2.828571 1.443750 0.0
2.871429 1.443750 0.0
2.914286 1.443750 0.0
2.957143 1.443750 0.0
3.000000 1.443750 0.0
1.500000 1.487500 0.0
1.542857 1.487500 0.0
1.585714 1.487500 0.0
1.628571 1.487500 0.0
1.671429 1.487500 0.0
1.714286 1.487500 0.0
1.757143 1.487500 0.0
1.800000 1.487500 0.0
1.842857 1.487500 0.0
1.885714 1.487500 0.0
1.928571 1.487500 0.0
1.971429 1.487500 0.0
2.014286 1.487500 0.0
2.057143 1.487500 0.0
2.100000 1.487500 0.0
2.142857 1.487500 0.0
2.185714 1.487500 0.0
2.228571 1.487500 0.0
2.271429 1.487500 0.0
2.314286 1.487500 0.0
2.357143 1.487500 0.0
2.400000 1.487500 0.0
2.442857 1.487500 0.0
2.485714 1.487500 0.0
2.528571 1.487500 0.0
2.571429 1.487500 0.0
2.614286 1.487500 0.0
2.657143 1.487500 0.0
2.700000 1.487500 0.0
2.742857 1.487500 0.0
2.785714 1.487500 0.0
2.828571 1.487500 0.0
2.871429 1.487500 0.0
2.914286 1.487500 0.0
2.957143 1.487500 0.0
3.000000 1.487500 0.0
1.500000 1.531250 0.0
1.542857 1.531250 0.0
1.585714 1.531250 0.0
1.628571 1.531250 0.0
1.671429 1.531250 0.0
1.714286 1.531250 0.0
1.757143 1.531250 0.0
1.800000 1.531250 0.0
1.842857 1.531250 0.0
1.885714 1.531250 0.0
1.928571 1.531250 0.0
1.971429 1.531250 0.0
2.014286 1.531250 0.0
2.057143 1.531250 0.0
2.100000 1.531250 0.0
2.142857 1.531250 0.0
2.185714 1.531250 0.0
2.228571 1.531250 0.0
2.271429 1.531250 0.0
2.314286 1.531250 0.0
2.357143 1.531250 0.0
2.400000 1.531250 0.0
2.442857 1.531250 0.0
2.485714 1.531250 0.0
2.528571 1.531250 0.0
2.571429 1.531250 0.0
2.614286 1.531250 0.0
2.657143 1.531250 0.0
2.700000 1.531250 0.0
2.742857 1.531250 0.0
2.785714 1.531250 0.0
2.828571 1.531250 0.0
2.871429 1.531250 0.0
2.914286 1.531250 0.0
2.957143 1.531250 0.0
3.000000 1.531250 0.0
1.500000 1.575000 0.0
1.542857 1.575000 0.0
1.585714 1.575000 0.0
1.628571 1.575000 0.0
1.671429 1.575000 0.0
1.714286 1.575000 0.0
1.757143 1.575000 0.0
1.800000 1.575000 0.0
1.842857 1.575000 0.0
1.885714 1.575000 0.0
1.928571 1.575000 0.0
1.971429 1.575000 0.0
2.014286 1.575000 0.0
2.057143 1.575000 0.0
2.100000 1.575000 0.0
2.142857 1.575000 0.0
2.185714 1.575000 0.0
2.228571 1.575000 0.0
2.271429 1.575000 0.0
2.314286 1.575000 0.0
2.357143 1.575000 0.0
2.400000 1.575000 0.0
2.442857 1.575000 0.0
2.485714 1.575000 0.0
2.528571 1.575000 0.0
2.571429 1.575000 0.0
2.614286 1.575000 0.0
2.657143 1.575000 0.0
2.700000 1.575000 0.0
2.742857 1.575000 0.0
2.785714 1.575000 0.0
2.828571 1.575000 0.0
2.871429 1.575000 0.0
2.914286 1.575000 0.0
2.957143 1.575000 0.0
3.000000 1.575000 0.0
1.500000 1.618750 0.0
1.542857 1.618750 0.0
1.585714 1.618750 0.0
1.628571 1.618750 0.0
1.671429 1.618750 0.0
1.714286 1.618750 0.0
1.757143 1.618750 0.0
1.800000 1.618750 0.0
1.842857 1.618750 0.0
1.885714 1.618750 0.0
1.928571 1.618750 0.0
1.971429 1.618750 0.0
2.014286 1.618750 0.0
2.057143 1.618750 0.0
2.100000 1.618750 0.0
2.142857 1.618750 0.0
2.185714 1.618750 0.0
2.228571 1.618750 0.0
2.271429 1.618750 0.0
2.314286 1.618750 0.0
2.357143 1.618750 0.0
2.400000 1.618750 0.0
2.442857 1.618750 0.0
2.485714 1.618750 0.0
2.528571 1.618750 0.0
2.571429 1.618750 0.0
2.614286 1.618750 0.0
2.657143 1.618750 0.0
2.700000 1.618750 0.0
2.742857 1.618750 0.0
2.785714 1.618750 0.0
2.828571 1.618750 0.0
2.871429 1.618750 0.0
2.914286 1.618750 0.0
2.957143 1.618750 0.0
3.000000 1.618750 0.0
1.500000 1.662500 0.0
1.542857 1.662500 0.0
1.585714 1.662500 0.0
1.628571 1.662500 0.0
1.671429 1.662500 0.0
1.714286 1.662500 0.0
1.757143 1.662500 0.0
1.800000 1.662500 0.0
1.842857 1.662500 0.0
1.885714 1.662500 0.0
1.928571 1.662500 0.0
1.971429 1.662500 0.0
2.014286 1.662500 0.0
2.057143 1.662500 0.0
2.100000 1.662500 0.0
2.142857 1.662500 0.0
2.185714 1.662500 0.0
2.228571 1.662500 0.0
2.271429 1.662500 0.0
2.314286 1.662500 0.0
2.357143 1.662500 0.0
2.400000 1.662500 0.0
2.442857 1.662500 0.0
2.485714 1.662500 0.0
2.528571 1.662500 0.0
2.571429 1.662500 0.0
2.614286 1.662500 0.0
2.657143 1.662500 0.0
2.700000 1.662500 0.0
2.742857 1.662500 0.0
2.785714 1.662500 0.0
2.828571 1.662500 0.0
2.871429 1.662500 0.0
2.914286 1.662500 0.0
2.957143 1.662500 0.0
3.000000 1.662500 0.0
1.500000 1.706250 0.0
1.542857 1.706250 0.0
1.585714 1.706250 0.0
1.628571 1.706250 0.0
1.671429 1.706250 0.0
1.714286 1.706250 0.0
1.757143 1.706250 0.0
1.800000 1.706250 0.0
1.842857 1.706250 0.0
1.885714 1.706250 0.0
1.928571 1.706250 0.0
1.971429 1.706250 0.0
2.014286 1.706250 0.0
2.057143 1.706250 0.0
2.100000 1.706250 0.0
2.142857 1.706250 0.0
2.185714 1.706250 0.0
2.228571 1.706250 0.0
2.271429 1.706250 0.0
2.314286 1.706250 0.0
2.357143 1.706250 0.0
2.400000 1.706250 0.0
2.442857 1.706250 0.0
2.485714 1.706250 0.0
2.528571 1.706250 0.0
2.571429 1.706250 0.0
2.614286 1.706250 0.0
2.657143 1.706250 0.0
2.700000 1.706250 0.0
2.742857 1.706250 0.0
2.785714 1.706250 0.0
2.828571 1.706250 0.0
2.871429 1.706250 0.0
2.914286 1.706250 0.0
2.957143 1.706250 0.0
3.000000 1.706250 0.0
1.500000 1.750000 0.0
1.542857 1.750000 0.0
1.585714 1.750000 0.0
1.628571 1.750000 0.0
1.671429 1.750000 0.0
1.714286 1.750000 0.0
1.757143 1.750000 0.0
1.800000 1.750000 0.0
1.842857 1.750000 0.0
1.885714 1.750000 0.0
1.928571 1.750000 0.0
1.971429 1.750000 0.0
2.014286 1.750000 0.0
2.057143 1.750000 0.0
2.100000 1.750000 0.0
2.142857 1.750000 0.0
2.185714 1.750000 0.0
2.228571 1.750000 0.0
2.271429 1.750000 0.0
2.314286 1.750000 0.0
2.357143 1.750000 0.0
2.400000 1.750000 0.0
2.442857 1.750000 0.0
2.485714 1.750000 0.0
2.528571 1.750000 0.0
2.571429 1.750000 0.0
2.614286 1.750000 0.0
2.657143 1.750000 0.0
2.700000 1.750000 0.0
2.742857 1.750000 0.0
2.785714 1.750000 0.0
2.828571 1.750000 0.0
2.871429 1.750000 0.0
2.914286 1.750000 0.0
2.957143 1.750000 0.0
3.000000 1.750000 0.0
</DataArray></Points>
<PointData>
<DataArray NumberOfComponents="1" format="ascii" type ="Float32" Name="phi">
0.214761
0.216599
0.221162
0.227833
0.236262
0.246914
0.260307
0.276004
0.293316
0.312135
0.332564
0.354805
0.378936
0.404642
0.431631
0.459901
0.489367
0.519728
0.550737
0.582326
0.614593
0.647681
0.681489
0.715750
0.750326
0.785261
0.820773
0.856949
0.893534
0.930307
0.967254
1.004551
1.042382
1.080606
1.118978
1.133402
0.171060
0.173019
0.177839
0.184818
0.193633
0.205008
0.219338
0.235818
0.253833
0.273458
0.294898
0.318332
0.343750
0.370749
0.398868
0.427984
0.458160
0.489369
0.521359
0.553896
0.586919
0.620540
0.654934
0.690001
0.725456
0.761170
0.797213
0.833821
0.871040
0.908595
0.946293
0.984145
1.022338
1.061012
1.099995
1.119523
0.127356
0.129448
0.134549
0.141854
0.151105
0.163359
0.178713
0.195946
0.214705
0.235294
0.258024
0.282827
0.309453
0.337633
0.366945
0.397113
0.428086
0.459960
0.492757
0.526255
0.560219
0.594589
0.629508
0.665175
0.701459
0.738063
0.774876
0.812003
0.849671
0.887867
0.926325
0.964897
1.003616
1.042662
1.082083
1.101865
0.083649
0.085891
0.091297
0.098945
0.108700
0.122007
0.138444
0.156379
0.175998
0.197850
0.222160
0.248478
0.276282
0.305459
0.335838
0.367122
0.399102
0.431750
0.465187
0.499479
0.534412
0.569739
0.605410
0.641603
0.678513
0.715964
0.753665
0.791544
0.829724
0.868390
0.907469
0.946742
0.986124
1.025668
1.065473
1.085450
0.039941
0.042349
0.048082
0.056080
0.066419
0.080987
0.098542
0.117128
0.137907
0.161450
0.187437
0.215221
0.244286
0.274455
0.305733
0.338019
0.371076
0.404718
0.438923
0.473855
0.509603
0.545928
0.582580
0.619533
0.656994
0.695097
0.733627
0.772356
0.811253
0.850441
0.890004
0.929835
0.969814
1.009926
1.050202
1.070387
-0.002696
-0.000136
0.005943
0.014490
0.025783
0.041111
0.058771
0.078071
0.100796
0.126417
0.153964
0.183037
0.213364
0.244675
0.276881
0.310015
0.344043
0.378766
0.413992
0.449717
0.486144
0.523327
0.560995
0.598936
0.637165
0.675866
0.715052
0.754524
0.794178
0.834019
0.874091
0.914377
0.954825
0.995416
1.036142
1.056535
-0.045299
-0.042573
-0.036084
-0.026485
-0.013476
0.002805
0.020852
0.041009
0.065341
0.092818
0.121756
0.152037
0.183542
0.216048
0.249355
0.283402
0.318276
0.353995
0.390357
0.427164
0.464443
0.502382
0.540930
0.579838
0.619000
0.658456
0.698249
0.738319
0.778592
0.819033
0.859620
0.900338
0.941178
0.982143
1.023221
1.043785
-0.088930
-0.085977
-0.078909
-0.068017
-0.053221
-0.035253
-0.015206
0.006867
0.032132
0.060497
0.090811
0.122386
0.155029
0.188640
0.223109
0.258297
0.294169
0.330828
0.368264
0.406256
0.444654
0.483514
0.522868
0.562593
0.602580
0.642786
0.683194
0.723787
0.764547
0.805446
0.846454
0.887553
0.928737
0.970012
1.011379
1.032083
-0.132539
-0.129296
-0.121433
-0.109241
-0.092959
-0.073352
-0.051061
-0.026182
0.000988
0.030017
0.061275
0.094192
0.128018
0.162731
0.198344
0.234803
0.271969
0.309800
0.348335
0.387444
0.426952
0.466801
0.506958
0.547371
0.587991
0.628777
0.669697
0.710735
0.751892
0.793153
0.834500
0.875915
0.917394
0.958939
1.000553
1.021378
-0.176129
-0.172507
-0.163615
-0.149941
-0.131991
-0.110520
-0.085887
-0.058341
-0.028553
0.002307
0.034024
0.067491
0.102592
0.138645
0.175629
0.213507
0.252131
0.291334
0.331035
0.371133
0.411530
0.452162
0.492981
0.533956
0.575067
0.616293
0.657610
0.699008
0.740487
0.782046
0.823673
0.865356
0.907089
0.948872
0.990707
1.011639
-0.219683
-0.215546
-0.205349
-0.189900
-0.169922
-0.146107
-0.118862
-0.088760
-0.056543
-0.022973
0.010268
0.043469
0.079204
0.117115
0.155842
0.195277
0.235261
0.275636
0.316297
0.357177
0.398227
0.439415
0.480715
0.522111
0.563598
0.605164
0.646797
0.688489
0.730240
0.772051
0.813919
0.855835
0.897792
0.939787
0.981824
1.002854
-0.263163
-0.258311
-0.246425
-0.228735
-0.206158
-0.179476
-0.149406
-0.116767
-0.082220
-0.046124
-0.010277
0.023402
0.059440
0.099288
0.139624
0.180346
0.221326
0.262488
0.303787
0.345194
0.386694
0.428273
0.469923
0.511640
0.553423
0.595266
0.637164
0.679108
0.721097
0.763133
0.805217
0.847343
0.889502
0.931693
0.973918
0.995039
-0.306484
-0.300621
-0.286436
-0.265763
-0.239828
-0.209741
-0.176594
-0.141389
-0.104801
-0.067213
-0.029539
0.006349
0.044140
0.085354
0.126712
0.168187
0.209742
0.251365
0.293055
0.334809
0.376626
0.418501
0.460433
0.502417
0.544455
0.586544
0.628681
0.670856
0.713068
0.755316
0.797604
0.839929
0.882284
0.924667
0.967076
0.988287
-0.349444
-0.342070
-0.324536
-0.299812
-0.269790
-0.236162
-0.200298
-0.163151
-0.125336
-0.087192
-0.048936
-0.009254
0.032400
0.074377
0.116151
0.157969
0.199829
0.241743
0.283718
0.325753
0.367849
0.410002
0.452206
0.494453
0.536744
0.579081
0.621458
0.663867
0.706304
0.748770
0.791267
0.833794
0.876344
0.918933
0.961512
0.982783
-0.391406
-0.381682
-0.359259
-0.329593
-0.295502
-0.258981
-0.221197
-0.182675
-0.143633
-0.104066
-0.063957
-0.020829
0.022942
0.064775
0.106841
0.148981
0.191189
0.233465
0.275800
0.318186
0.360619
0.403095
0.445607
0.488147
0.530714
0.573309
0.615929
0.658568
0.701224
0.743894
0.786581
0.829285
0.872001
0.914723
0.956574
0.977066
-0.430541
-0.417425
-0.388490
-0.353494
-0.315471
-0.275912
-0.235488
-0.194523
-0.153155
-0.111343
-0.069006
-0.025608
0.016299
0.057402
0.099968
0.142544
0.185162
0.227818
0.270502
0.313209
0.355933
0.398673
0.441426
0.484190
0.526961
0.569741
0.612527
0.655320
0.698118
0.740921
0.783728
0.826539
0.869342
0.911340
0.945791
0.959639
-0.458989
-0.441706
-0.404975
-0.364744
-0.323285
-0.281178
-0.238656
-0.195908
-0.153085
-0.110277
-0.067469
-0.025662
0.013918
0.054545
0.097362
0.140135
0.182922
0.225720
0.268528
0.311342
0.354162
0.396985
0.439814
0.482647
0.525483
0.568319
0.611158
0.653998
0.696842
0.739687
0.782534
0.825381
0.867409
0.901844
0.919786
0.923898
-0.455041
-0.439062
-0.403388
-0.363196
-0.321283
-0.278785
-0.236115
-0.193374
-0.150594
-0.107794
-0.064950
-0.023425
0.016145
0.056973
0.099628
0.142264
0.184919
0.227593
0.270287
0.312997
0.355719
0.398454
0.441201
0.483958
0.526723
0.569494
0.612272
0.655057
0.697850
0.740647
0.783442
0.825203
0.858912
0.876236
0.880310
0.880405
-0.421444
-0.410977
-0.384713
-0.351004
-0.312997
-0.272912
-0.231837
-0.190202
-0.148199
-0.105874
-0.063227
-0.020332
0.021512
0.063044
0.105406
0.147789
0.190203
0.232651
0.275131
0.317638
0.360169
0.402725
0.445304
0.487902
0.530516
0.573144
0.615788
0.658448
0.701121
0.743799
0.785006
0.817276
0.833149
0.836672
0.836690
0.836656
-0.380763
-0.373249
-0.353581
-0.326657
-0.294174
-0.258122
-0.219991
-0.180561
-0.140348
-0.099664
-0.058625
-0.014949
0.028964
0.070810
0.112856
0.154957
0.197112
0.239318
0.281570
0.323860
0.366186
0.408548
0.450943
0.493366
0.535811
0.578280
0.620772
0.663289
0.705886
0.746312
0.776492
0.790323
0.793067
0.793022
0.792940
0.792906
-0.338488
-0.332486
-0.316664
-0.294657
-0.267023
-0.234868
-0.199853
-0.162897
-0.124586
-0.085524
-0.046134
-0.003385
0.040112
0.081228
0.122600
0.164169
0.205884
0.247715
0.289637
0.331630
0.373686
0.415803
0.457971
0.500178
0.542421
0.584699
0.627014
0.669449
0.708756
0.736291
0.747659
0.749485
0.749382
0.749274
0.749191
0.760094
</DataArray>
<DataArray NumberOfComponents="1" format="ascii" type ="Float32" Name="u">
0.000574
-0.001885
-0.004302
-0.006569
-0.008588
-0.010288
-0.011637
-0.012634
-0.013302
-0.013676
-0.013795
-0.013700
-0.013432
-0.013032
-0.012543
-0.012001
-0.011438
-0.010881
-0.010345
-0.009844
-0.009384
-0.008966
-0.008590
-0.008256
-0.007961
-0.007703
-0.007479
-0.007287
-0.007125
-0.006992
-0.006886
-0.006805
-0.006749
-0.006714
-0.006697
-0.006697
0.000751
-0.002244
-0.005179
-0.007896
-0.010257
-0.012168
-0.013599
-0.014572
-0.015134
-0.015351
-0.015285
-0.014993
-0.014529
-0.013940
-0.013273
-0.012572
-0.011870
-0.011195
-0.010563
-0.009984
-0.009460
-0.008991
-0.008576
-0.008209
-0.007888
-0.007609
-0.007368
-0.007163
-0.006992
-0.006851
-0.006740
-0.006657
-0.006601
-0.006570
-0.006560
-0.006560
0.000802
-0.002706
-0.006112
-0.009237
-0.011936
-0.014073
-0.015615
-0.016586
-0.017050
-0.017100
-0.016830
-0.016319
-0.015634
-0.014833
-0.013971
-0.013098
-0.012250
-0.011454
-0.010726
-0.010070
-0.009486
-0.008971
-0.008518
-0.008122
-0.007778
-0.007480
-0.007225
-0.007009
-0.006829
-0.006681
-0.006565
-0.006479
-0.006421
-0.006387
-0.006373
-0.006373
0.000526
-0.003206
-0.006772
-0.010086
-0.013096
-0.015519
-0.017301
-0.018408
-0.018886
-0.018832
-0.018376
-0.017640
-0.016718
-0.015688
-0.014616
-0.013559
-0.012560
-0.011643
-0.010821
-0.010093
-0.009455
-0.008897
-0.008412
-0.007991
-0.007627
-0.007315
-0.007048
-0.006822
-0.006634
-0.006481
-0.006361
-0.006271
-0.006210
-0.006173
-0.006156
-0.006156
-0.000158
-0.003401
-0.006518
-0.009682
-0.013084
-0.015811
-0.018057
-0.019601
-0.020377
-0.020405
-0.019854
-0.018918
-0.017755
-0.016480
-0.015184
-0.013936
-0.012783
-0.011750
-0.010839
-0.010046
-0.009360
-0.008766
-0.008254
-0.007813
-0.007434
-0.007109
-0.006833
-0.006600
-0.006407
-0.006250
-0.006126
-0.006033
-0.005969
-0.005930
-0.005912
-0.005912
-0.000884
-0.002992
-0.005195
-0.007787
-0.011044
-0.014020
-0.017167
-0.019536
-0.021094
-0.021567
-0.021133
-0.020091
-0.018709
-0.017185
-0.015655
-0.014211
-0.012907
-0.011761
-0.010771
-0.009922
-0.009195
-0.008573
-0.008041
-0.007585
-0.007195
-0.006862
-0.006580
-0.006343
-0.006146
-0.005986
-0.005860
-0.005766
-0.005700
-0.005660
-0.005641
-0.005641
-0.001091
-0.002183
-0.003494
-0.005138
-0.007143
-0.010132
-0.013916
-0.017397
-0.020400
-0.021876
-0.021952
-0.021031
-0.019524
-0.017771
-0.016007
-0.014368
-0.012917
-0.011668
-0.010608
-0.009713
-0.008956
-0.008315
-0.007769
-0.007304
-0.006908
-0.006572
-0.006287
-0.006049
-0.005851
-0.005691
-0.005564
-0.005469
-0.005403
-0.005362
-0.005343
-0.005343
-0.000864
-0.001368
-0.002038
-0.002881
-0.003844
-0.006071
-0.008977
-0.013005
-0.017358
-0.020709
-0.021867
-0.021473
-0.020067
-0.018181
-0.016213
-0.014389
-0.012800
-0.011460
-0.010344
-0.009415
-0.008639
-0.007987
-0.007435
-0.006968
-0.006572
-0.006237
-0.005954
-0.005717
-0.005521
-0.005362
-0.005237
-0.005143
-0.005077
-0.005037
-0.005018
-0.005018
-0.000597
-0.000766
-0.001044
-0.001471
-0.002084
-0.003301
-0.004982
-0.008097
-0.012277
-0.017349
-0.020285
-0.021004
-0.020090
-0.018292
-0.016217
-0.014247
-0.012541
-0.011127
-0.009970
-0.009022
-0.008238
-0.007585
-0.007037
-0.006575
-0.006185
-0.005855
-0.005578
-0.005347
-0.005156
-0.005001
-0.004879
-0.004787
-0.004723
-0.004683
-0.004665
-0.004665
-0.000393
-0.000391
-0.000457
-0.000633
-0.000955
-0.001621
-0.002727
-0.004589
-0.007518
-0.012139
-0.016953
-0.019244
-0.019269
-0.017895
-0.015908
-0.013886
-0.012111
-0.010652
-0.009476
-0.008526
-0.007749
-0.007107
-0.006571
-0.006122
-0.005744
-0.005426
-0.005160
-0.004938
-0.004756
-0.004608
-0.004491
-0.004403
-0.004341
-0.004303
-0.004285
-0.004285
-0.000248
-0.000164
-0.000119
-0.000143
-0.000268
-0.000600
-0.001255
-0.002416
-0.004253
-0.007145
-0.012255
-0.016366
-0.017433
-0.016749
-0.015110
-0.013204
-0.011454
-0.010005
-0.008845
-0.007916
-0.007163
-0.006545
-0.006033
-0.005606
-0.005249
-0.004949
-0.004699
-0.004491
-0.004320
-0.004182
-0.004073
-0.003991
-0.003933
-0.003897
-0.003880
-0.003880
-0.000144
-0.000028
0.000070
0.000131
0.000132
0.000011
-0.000322
-0.000979
-0.002094
-0.003887
-0.007535
-0.012722
-0.014617
-0.014729
-0.013651
-0.012065
-0.010488
-0.009141
-0.008050
-0.007176
-0.006470
-0.005894
-0.005419
-0.005025
-0.004697
-0.004423
-0.004195
-0.004006
-0.003851
-0.003726
-0.003627
-0.003553
-0.003500
-0.003467
-0.003451
-0.003451
-0.000067
0.000053
0.000168
0.000269
0.000341
0.000347
0.000225
-0.000106
-0.000773
-0.001997
-0.004295
-0.008522
-0.011172
-0.012002
-0.011493
-0.010366
-0.009125
-0.008000
-0.007057
-0.006285
-0.005658
-0.005146
-0.004724
-0.004376
-0.004087
-0.003848
-0.003649
-0.003485
-0.003350
-0.003241
-0.003155
-0.003090
-0.003044
-0.003014
-0.003000
-0.003000
-0.000011
0.000099
0.000212
0.000322
0.000421
0.000489
0.000488
0.000364
0.000025
-0.000680
-0.002031
-0.004342
-0.007976
-0.008979
-0.008756
-0.008099
-0.007316
-0.006536
-0.005829
-0.005220
-0.004712
-0.004291
-0.003943
-0.003657
-0.003420
-0.003224
-0.003062
-0.002928
-0.002819
-0.002730
-0.002660
-0.002606
-0.002567
-0.002542
-0.002530
-0.002530
0.000026
0.000123
0.000224
0.000325
0.000420
0.000499
0.000540
0.000513
0.000381
0.000101
-0.000394
-0.001365
-0.005185
-0.005730
-0.005566
-0.005351
-0.005083
-0.004735
-0.004345
-0.003963
-0.003620
-0.003324
-0.003075
-0.002867
-0.002696
-0.002554
-0.002436
-0.002340
-0.002260
-0.002196
-0.002144
-0.002104
-0.002074
-0.002055
-0.002045
-0.002045
0.000052
0.000138
0.000226
0.000310
0.000386
0.000441
0.000461
0.000426
0.000317
0.000141
-0.000066
-0.000378
-0.002216
-0.002081
-0.002048
-0.002285
-0.002530
-0.002642
-0.002621
-0.002519
-0.002384
-0.002247
-0.002121
-0.002012
-0.001919
-0.001842
-0.001778
-0.001724
-0.001680
-0.001643
-0.001613
-0.001588
-0.001568
-0.001555
-0.001547
-0.001547
0.000077
0.000158
0.000237
0.000307
0.000363
0.000391
0.000374
0.000287
0.000109
-0.000158
-0.000417
-0.000297
0.000896
0.001683
0.001493
0.000837
0.000149
-0.000384
-0.000729
-0.000927
-0.001029