<VTKFile type="StructuredGrid" version="0.1" byte_order="LittleEndian">
<StructuredGrid WholeExtent="1 71 1 81 0 0">
<Piece Extent="36 71 61 81 0 0">
<PointData></PointData>
<CellData></CellData>
<Points>
<DataArray NumberOfComponents="3" format="ascii" type ="Float32" Name="mesh">
1.500000 2.625000 0.0
1.542857 2.625000 0.0
1.585714 2.625000 0.0
1.628571 2.625000 0.0
1.671429 2.625000 0.0
1.714286 2.625000 0.0
1.757143 2.625000 0.0
1.800000 2.625000 0.0
1.842857 2.625000 0.0
1.885714 2.625000 0.0
1.928571 2.625000 0.0
1.971429 2.625000 0.0
2.014286 2.625000 0.0
2.057143 2.625000 0.0
2.100000 2.625000 0.0
2.142857 2.625000 0.0
2.185714 2.625000 0.0
2.228571 2.625000 0.0
2.271429 2.625000 0.0
2.314286 2.625000 0.0
2.357143 2.625000 0.0
2.400000 2.625000 0.0
2.442857 2.625000 0.0
2.485714 2.625000 0.0
2.528571 2.625000 0.0
2.571429 2.625000 0.0
2.614286 2.625000 0.0
2.657143 2.625000 0.0
2.700000 2.625000 0.0
2.742857 2.625000 0.0
2.785714 2.625000 0.0
2.828571 2.625000 0.0
2.871429 2.625000 0.0
2.914286 2.625000 0.0
2.957143 2.625000 0.0
3.000000 2.625000 0.0
1.500000 2.668750 0.0
1.542857 2.668750 0.0
1.585714 2.668750 0.0
1.628571 2.668750 0.0
1.671429 2.668750 0.0
1.714286 2.668750 0.0
1.757143 2.668750 0.0
1.800000 2.668750 0.0
1.842857 2.668750 0.0
1.885714 2.668750 0.0
1.928571 2.668750 0.0
1.971429 2.668750 0.0
2.014286 2.668750 0.0
2.057143 2.668750 0.0
2.100000 2.668750 0.0
2.142857 2.668750 0.0
2.185714 2.668750 0.0
2.228571 2.668750 0.0
2.271429 2.668750 0.0
2.314286 2.668750 0.0
2.357143 2.668750 0.0
2.400000 2.668750 0.0
2.442857 2.668750 0.0
2.485714 2.668750 0.0
2.528571 2.668750 0.0
2.571429 2.668750 0.0
2.614286 2.668750 0.0
2.657143 2.668750 0.0
2.700000 2.668750 0.0
2.742857 2.668750 0.0
2.785714 2.668750 0.0
2.828571 2.668750 0.0
2.871429 2.668750 0.0
2.914286 2.668750 0.0
2.957143 2.668750 0.0
3.000000 2.668750 0.0
1.500000 2.712500 0.0
1.542857 2.712500 0.0
1.585714 2.712500 0.0
1.628571 2.712500 0.0
1.671429 2.712500 0.0
1.714286 2.712500 0.0
1.757143 2.712500 0.0
1.800000 2.712500 0.0
1.842857 2.712500 0.0
1.885714 2.712500 0.0
1.928571 2.712500 0.0
1.971429 2.712500 0.0
2.014286 2.712500 0.0
2.057143 2.712500 0.0
2.100000 2.712500 0.0
2.142857 2.712500 0.0
2.185714 2.712500 0.0
2.228571 2.712500 0.0
2.271429 2.712500 0.0
2.314286 2.712500 0.0
2.357143 2.712500 0.0
2.400000 2.712500 0.0
2.442857 2.712500 0.0
2.485714 2.712500 0.0
2.528571 2.712500 0.0
2.571429 2.712500 0.0
2.614286 2.712500 0.0
2.657143 2.712500 0.0
2.700000 2.712500 0.0
2.742857 2.712500 0.0
2.785714 2.712500 0.0
2.828571 2.712500 0.0
2.871429 2.712500 0.0
2.914286 2.712500 0.0
2.957143 2.712500 0.0
3.000000 2.712500 0.0
1.500000 2.756250 0.0
1.542857 2.756250 0.0
1.585714 2.756250 0.0
1.628571 2.756250 0.0
1.671429 2.756250 0.0
1.714286 2.756250 0.0
1.757143 2.756250 0.0
1.800000 2.756250 0.0
1.842857 2.756250 0.0
1.885714 2.756250 0.0
1.928571 2.756250 0.0
1.971429 2.756250 0.0
2.014286 2.756250 0.0
2.057143 2.756250 0.0
2.100000 2.756250 0.0
2.142857 2.756250 0.0
2.185714 2.756250 0.0
2.228571 2.756250 0.0
2.271429 2.756250 0.0
2.314286 2.756250 0.0
2.357143 2.756250 0.0
2.400000 2.756250 0.0
2.442857 2.756250 0.0
2.485714 2.756250 0.0
2.528571 2.756250 0.0
2.571429 2.756250 0.0
2.614286 2.756250 0.0
2.657143 2.756250 0.0
2.700000 2.756250 0.0
2.742857 2.756250 0.0
2.785714 2.756250 0.0
2.828571 2.756250 0.0
2.871429 2.756250 0.0
2.914286 2.756250 0.0
2.957143 2.756250 0.0
3.000000 2.756250 0.0
1.500000 2.800000 0.0
1.542857 2.800000 0.0
1.585714 2.800000 0.0
1.628571 2.800000 0.0
1.671429 2.800000 0.0
1.714286 2.800000 0.0
1.757143 2.800000 0.0
1.800000 2.800000 0.0
1.842857 2.800000 0.0
1.885714 2.800000 0.0
1.928571 2.800000 0.0
1.971429 2.800000 0.0
2.014286 2.800000 0.0
2.057143 2.800000 0.0
2.100000 2.800000 0.0
2.142857 2.800000 0.0
2.185714 2.800000 0.0
2.228571 2.800000 0.0
2.271429 2.800000 0.0
2.314286 2.800000 0.0
2.357143 2.800000 0.0
2.400000 2.800000 0.0
2.442857 2.800000 0.0
2.485714 2.800000 0.0
2.528571 2.800000 0.0
2.571429 2.800000 0.0
2.614286 2.800000 0.0
2.657143 2.800000 0.0
2.700000 2.800000 0.0
2.742857 2.800000 0.0
2.785714 2.800000 0.0
2.828571 2.800000 0.0
2.871429 2.800000 0.0
2.914286 2.800000 0.0
2.957143 2.800000 0.0
3.000000 2.800000 0.0
1.500000 2.843750 0.0
1.542857 2.843750 0.0
1.585714 2.843750 0.0
1.628571 2.843750 0.0
1.671429 2.843750 0.0
1.714286 2.843750 0.0
1.757143 2.843750 0.0
1.800000 2.843750 0.0
1.842857 2.843750 0.0
1.885714 2.843750 0.0
1.928571 2.843750 0.0
1.971429 2.843750 0.0
2.014286 2.843750 0.0
2.057143 2.843750 0.0
2.100000 2.843750 0.0
2.142857 2.843750 0.0
2.185714 2.843750 0.0
2.228571 2.843750 0.0
2.271429 2.843750 0.0
2.314286 2.843750 0.0
2.357143 2.843750 0.0
2.400000 2.843750 0.0
2.442857 2.843750 0.0
2.485714 2.843750 0.0
2.528571 2.843750 0.0
2.571429 2.843750 0.0
2.614286 2.843750 0.0
2.657143 2.843750 0.0
2.700000 2.843750 0.0
2.742857 2.843750 0.0
2.785714 2.843750 0.0
2.828571 2.843750 0.0
2.871429 2.843750 0.0
2.914286 2.843750 0.0
2.957143 2.843750 0.0
3.000000 2.843750 0.0
1.500000 2.887500 0.0
1.542857 2.887500 0.0
1.585714 2.887500 0.0
1.628571 2.887500 0.0
1.671429 2.887500 0.0
1.714286 2.887500 0.0
1.757143 2.887500 0.0
1.800000 2.887500 0.0
1.842857 2.887500 0.0
1.885714 2.887500 0.0
1.928571 2.887500 0.0
1.971429 2.887500 0.0
2.014286 2.887500 0.0
2.057143 2.887500 0.0
2.100000 2.887500 0.0
2.142857 2.887500 0.0
2.185714 2.887500 0.0
2.228571 2.887500 0.0
2.271429 2.887500 0.0
2.314286 2.887500 0.0
2.357143 2.887500 0.0
2.400000 2.887500 0.0
2.442857 2.887500 0.0
2.485714 2.887500 0.0
2.528571 2.887500 0.0
2.571429 2.887500 0.0
2.614286 2.887500 0.0
2.657143 2.887500 0.0
2.700000 2.887500 0.0
2.742857 2.887500 0.0
2.785714 2.887500 0.0
2.828571 2.887500 0.0
2.871429 2.887500 0.0
2.914286 2.887500 0.0
2.957143 2.887500 0.0
3.000000 2.887500 0.0
1.500000 2.931250 0.0
1.542857 2.931250 0.0
1.585714 2.931250 0.0
1.628571 2.931250 0.0
1.671429 2.931250 0.0
1.714286 2.931250 0.0
1.757143 2.931250 0.0
1.800000 2.931250 0.0
1.842857 2.931250 0.0
1.885714 2.931250 0.0
1.928571 2.931250 0.0
1.971429 2.931250 0.0
2.014286 2.931250 0.0
2.057143 2.931250 0.0
2.100000 2.931250 0.0
2.142857 2.931250 0.0
2.185714 2.931250 0.0
2.228571 2.931250 0.0
2.271429 2.931250 0.0
2.314286 2.931250 0.0
2.357143 2.931250 0.0
2.400000 2.931250 0.0
2.442857 2.931250 0.0
2.485714 2.931250 0.0
2.528571 2.931250 0.0
2.571429 2.931250 0.0
2.614286 2.931250 0.0
2.657143 2.931250 0.0
2.700000 2.931250 0.0
2.742857 2.931250 0.0
2.785714 2.931250 0.0
2.828571 2.931250 0.0
2.871429 2.931250 0.0
2.914286 2.931250 0.0
2.957143 2.931250 0.0
3.000000 2.931250 0.0
1.500000 2.975000 0.0
1.542857 2.975000 0.0
1.585714 2.975000 0.0
1.628571 2.975000 0.0
1.671429 2.975000 0.0
1.714286 2.975000 0.0
1.757143 2.975000 0.0
1.800000 2.975000 0.0
1.842857 2.975000 0.0
1.885714 2.975000 0.0
1.928571 2.975000 0.0
1.971429 2.975000 0.0
2.014286 2.975000 0.0
2.057143 2.975000 0.0
2.100000 2.975000 0.0
2.142857 2.975000 0.0
2.185714 2.975000 0.0
2.228571 2.975000 0.0
2.271429 2.975000 0.0
2.314286 2.975000 0.0
2.357143 2.975000 0.0
2.400000 2.975000 0.0
2.442857 2.975000 0.0
2.485714 2.975000 0.0
2.528571 2.975000 0.0
2.571429 2.975000 0.0
2.614286 2.975000 0.0
2.657143 2.975000 0.0
2.700000 2.975000 0.0
2.742857 2.975000 0.0
2.785714 2.975000 0.0
2.828571 2.975000 0.0
2.871429 2.975000 0.0
2.914286 2.975000 0.0
2.957143 2.975000 0.0
3.000000 2.975000 0.0
1.500000 3.018750 0.0
1.542857 3.018750 0.0
1.585714 3.018750 0.0
1.628571 3.018750 0.0
1.671429 3.018750 0.0
1.714286 3.018750 0.0
1.757143 3.018750 0.0
1.800000 3.018750 0.0
1.842857 3.018750 0.0
1.885714 3.018750 0.0
1.928571 3.018750 0.0
1.971429 3.018750 0.0
2.014286 3.018750 0.0
2.057143 3.018750 0.0
2.100000 3.018750 0.0
2.142857 3.018750 0.0
2.185714 3.018750 0.0
2.228571 3.018750 0.0
2.271429 3.018750 0.0
2.314286 3.018750 0.0
2.357143 3.018750 0.0
2.400000 3.018750 0.0
2.442857 3.018750 0.0
2.485714 3.018750 0.0
2.528571 3.018750 0.0
2.571429 3.018750 0.0
2.614286 3.018750 0.0
2.657143 3.018750 0.0
2.700000 3.018750 0.0
2.742857 3.018750 0.0
2.785714 3.018750 0.0
2.828571 3.018750 0.0
2.871429 3.018750 0.0
2.914286 3.018750 0.0
2.957143 3.018750 0.0
3.000000 3.018750 0.0
1.500000 3.062500 0.0
1.542857 3.062500 0.0
1.585714 3.062500 0.0
1.628571 3.062500 0.0
1.671429 3.062500 0.0
1.714286 3.062500 0.0
1.757143 3.062500 0.0
1.800000 3.062500 0.0
1.842857 3.062500 0.0
1.885714 3.062500 0.0
1.928571 3.062500 0.0
1.971429 3.062500 0.0
2.014286 3.062500 0.0
2.057143 3.062500 0.0
2.100000 3.062500 0.0
2.142857 3.062500 0.0
2.185714 3.062500 0.0
2.228571 3.062500 0.0
2.271429 3.062500 0.0
2.314286 3.062500 0.0
2.357143 3.062500 0.0
2.400000 3.062500 0.0
2.442857 3.062500 0.0
2.485714 3.062500 0.0
2.528571 3.062500 0.0
2.571429 3.062500 0.0
2.614286 3.062500 0.0
2.657143 3.062500 0.0
2.700000 3.062500 0.0
2.742857 3.062500 0.0
2.785714 3.062500 0.0
2.828571 3.062500 0.0
2.871429 3.062500 0.0
2.914286 3.062500 0.0
2.957143 3.062500 0.0
3.000000 3.062500 0.0
1.500000 3.106250 0.0
1.542857 3.106250 0.0
1.585714 3.106250 0.0
1.628571 3.106250 0.0
1.671429 3.106250 0.0
1.714286 3.106250 0.0
1.757143 3.106250 0.0
1.800000 3.106250 0.0
1.842857 3.106250 0.0
1.885714 3.106250 0.0
1.928571 3.106250 0.0
1.971429 3.106250 0.0
2.014286 3.106250 0.0
2.057143 3.106250 0.0
2.100000 3.106250 0.0
2.142857 3.106250 0.0
2.185714 3.106250 0.0
2.228571 3.106250 0.0
2.271429 3.106250 0.0
2.314286 3.106250 0.0
2.357143 3.106250 0.0
2.400000 3.106250 0.0
2.442857 3.106250 0.0
2.485714 3.106250 0.0
2.528571 3.106250 0.0
2.571429 3.106250 0.0
2.614286 3.106250 0.0
2.657143 3.106250 0.0
2.700000 3.106250 0.0
2.742857 3.106250 0.0
2.785714 3.106250 0.0
2.828571 3.106250 0.0
2.871429 3.106250 0.0
2.914286 3.106250 0.0
2.957143 3.106250 0.0
3.000000 3.106250 0.0
1.500000 3.150000 0.0
1.542857 3.150000 0.0
1.585714 3.150000 0.0
1.628571 3.150000 0.0
1.671429 3.150000 0.0
1.714286 3.150000 0.0
1.757143 3.150000 0.0
1.800000 3.150000 0.0
1.842857 3.150000 0.0
1.885714 3.150000 0.0
1.928571 3.150000 0.0
1.971429 3.150000 0.0
2.014286 3.150000 0.0
2.057143 3.150000 0.0
2.100000 3.150000 0.0
2.142857 3.150000 0.0
2.185714 3.150000 0.0
2.228571 3.150000 0.0
2.271429 3.150000 0.0
2.314286 3.150000 0.0
2.357143 3.150000 0.0
2.400000 3.150000 0.0
2.442857 3.150000 0.0
2.485714 3.150000 0.0
2.528571 3.150000 0.0
2.571429 3.150000 0.0
2.614286 3.150000 0.0
2.657143 3.150000 0.0
2.700000 3.150000 0.0
2.742857 3.150000 0.0
2.785714 3.150000 0.0
2.828571 3.150000 0.0
2.871429 3.150000 0.0
2.914286 3.150000 0.0
2.957143 3.150000 0.0
3.000000 3.150000 0.0
1.500000 3.193750 0.0
1.542857 3.193750 0.0
1.585714 3.193750 0.0
1.628571 3.193750 0.0
1.671429 3.193750 0.0
1.714286 3.193750 0.0
1.757143 3.193750 0.0
1.800000 3.193750 0.0
1.842857 3.193750 0.0
1.885714 3.193750 0.0
1.928571 3.193750 0.0
1.971429 3.193750 0.0
2.014286 3.193750 0.0
2.057143 3.193750 0.0
2.100000 3.193750 0.0
2.142857 3.193750 0.0
2.185714 3.193750 0.0
2.228571 3.193750 0.0
2.271429 3.193750 0.0
2.314286 3.193750 0.0
2.357143 3.193750 0.0
2.400000 3.193750 0.0
2.442857 3.193750 0.0
2.485714 3.193750 0.0
2.528571 3.193750 0.0
2.571429 3.193750 0.0
2.614286 3.193750 0.0
2.657143 3.193750 0.0
2.700000 3.193750 0.0
2.742857 3.193750 0.0
2.785714 3.193750 0.0
2.828571 3.193750 0.0
2.871429 3.193750 0.0
2.914286 3.193750 0.0
2.957143 3.193750 0.0
3.000000 3.193750 0.0
1.500000 3.237500 0.0
1.542857 3.237500 0.0
1.585714 3.237500 0.0
1.628571 3.237500 0.0
1.671429 3.237500 0.0
1.714286 3.237500 0.0
1.757143 3.237500 0.0
1.800000 3.237500 0.0
1.842857 3.237500 0.0
1.885714 3.237500 0.0
1.928571 3.237500 0.0
1.971429 3.237500 0.0
2.014286 3.237500 0.0
2.057143 3.237500 0.0
2.100000 3.237500 0.0
2.142857 3.237500 0.0
2.185714 3.237500 0.0
2.228571 3.237500 0.0
2.271429 3.237500 0.0
2.314286 3.237500 0.0
2.357143 3.237500 0.0
2.400000 3.237500 0.0
2.442857 3.237500 0.0
2.485714 3.237500 0.0
2.528571 3.237500 0.0
2.571429 3.237500 0.0
2.614286 3.237500 0.0
2.657143 3.237500 0.0
2.700000 3.237500 0.0
2.742857 3.237500 0.0
2.785714 3.237500 0.0
2.828571 3.237500 0.0
2.871429 3.237500 0.0
2.914286 3.237500 0.0
2.957143 3.237500 0.0
3.000000 3.237500 0.0
1.500000 3.281250 0.0
1.542857 3.281250 0.0
1.585714 3.281250 0.0
1.628571 3.281250 0.0
1.671429 3.281250 0.0
1.714286 3.281250 0.0
1.757143 3.281250 0.0
1.800000 3.281250 0.0
1.842857 3.281250 0.0
1.885714 3.281250 0.0
1.928571 3.281250 0.0
1.971429 3.281250 0.0
2.014286 3.281250 0.0
2.057143 3.281250 0.0
2.100000 3.281250 0.0
2.142857 3.281250 0.0
2.185714 3.281250 0.0
2.228571 3.281250 0.0
2.271429 3.281250 0.0
2.314286 3.281250 0.0
2.357143 3.281250 0.0
2.400000 3.281250 0.0
2.442857 3.281250 0.0
2.485714 3.281250 0.0
2.528571 3.281250 0.0
2.571429 3.281250 0.0
2.614286 3.281250 0.0
2.657143 3.281250 0.0
2.700000 3.281250 0.0
2.742857 3.281250 0.0
2.785714 3.281250 0.0
2.828571 3.281250 0.0
2.871429 3.281250 0.0
2.914286 3.281250 0.0
2.957143 3.281250 0.0
3.000000 3.281250 0.0
1.500000 3.325000 0.0
1.542857 3.325000 0.0
1.585714 3.325000 0.0
1.628571 3.325000 0.0
1.671429 3.325000 0.0
1.714286 3.325000 0.0
1.757143 3.325000 0.0
1.800000 3.325000 0.0
1.842857 3.325000 0.0
1.885714 3.325000 0.0
1.928571 3.325000 0.0
1.971429 3.325000 0.0
2.014286 3.325000 0.0
2.057143 3.325000 0.0
2.100000 3.325000 0.0
2.142857 3.325000 0.0
2.185714 3.325000 0.0
2.228571 3.325000 0.0
2.271429 3.325000 0.0
2.314286 3.325000 0.0
2.357143 3.325000 0.0
2.400000 3.325000 0.0
2.442857 3.325000 0.0
2.485714 3.325000 0.0
2.528571 3.325000 0.0
2.571429 3.325000 0.0
2.614286 3.325000 0.0
2.657143 3.325000 0.0
2.700000 3.325000 0.0
2.742857 3.325000 0.0
2.785714 3.325000 0.0
2.828571 3.325000 0.0
2.871429 3.325000 0.0
2.914286 3.325000 0.0
2.957143 3.325000 0.0
3.000000 3.325000 0.0
1.500000 3.368750 0.0
1.542857 3.368750 0.0
1.585714 3.368750 0.0
1.628571 3.368750 0.0
1.671429 3.368750 0.0
1.714286 3.368750 0.0
1.757143 3.368750 0.0
1.800000 3.368750 0.0
1.842857 3.368750 0.0
1.885714 3.368750 0.0
1.928571 3.368750 0.0
1.971429 3.368750 0.0
2.014286 3.368750 0.0
2.057143 3.368750 0.0
2.100000 3.368750 0.0
2.142857 3.368750 0.0
2.185714 3.368750 0.0
2.228571 3.368750 0.0
2.271429 3.368750 0.0
2.314286 3.368750 0.0
2.357143 3.368750 0.0
2.400000 3.368750 0.0
2.442857 3.368750 0.0
2.485714 3.368750 0.0
2.528571 3.368750 0.0
2.571429 3.368750 0.0
2.614286 3.368750 0.0
2.657143 3.368750 0.0
2.700000 3.368750 0.0
2.742857 3.368750 0.0
2.785714 3.368750 0.0
2.828571 3.368750 0.0
2.871429 3.368750 0.0
2.914286 3.368750 0.0
2.957143 3.368750 0.0
3.000000 3.368750 0.0
1.500000 3.412500 0.0
1.542857 3.412500 0.0
1.585714 3.412500 0.0
1.628571 3.412500 0.0
1.671429 3.412500 0.0
1.714286 3.412500 0.0
1.757143 3.412500 0.0
1.800000 3.412500 0.0
1.842857 3.412500 0.0
1.885714 3.412500 0.0
1.928571 3.412500 0.0
1.971429 3.412500 0.0
2.014286 3.412500 0.0
2.057143 3.412500 0.0
2.100000 3.412500 0.0
2.142857 3.412500 0.0
2.185714 3.412500 0.0
2.228571 3.412500 0.0
2.271429 3.412500 0.0
2.314286 3.412500 0.0
2.357143 3.412500 0.0
2.400000 3.412500 0.0
2.442857 3.412500 0.0
2.485714 3.412500 0.0
2.528571 3.412500 0.0
2.571429 3.412500 0.0
2.614286 3.412500 0.0
2.657143 3.412500 0.0
2.700000 3.412500 0.0
2.742857 3.412500 0.0
2.785714 3.412500 0.0
2.828571 3.412500 0.0
2.871429 3.412500 0.0
2.914286 3.412500 0.0
2.957143 3.412500 0.0
3.000000 3.412500 0.0
1.500000 3.456250 0.0
1.542857 3.456250 0.0
1.585714 3.456250 0.0
1.628571 3.456250 0.0
1.671429 3.456250 0.0
1.714286 3.456250 0.0
1.757143 3.456250 0.0
1.800000 3.456250 0.0
1.842857 3.456250 0.0
1.885714 3.456250 0.0
1.928571 3.456250 0.0
1.971429 3.456250 0.0
2.014286 3.456250 0.0
2.057143 3.456250 0.0
2.100000 3.456250 0.0
2.142857 3.456250 0.0
2.185714 3.456250 0.0
2.228571 3.456250 0.0
2.271429 3.456250 0.0
2.314286 3.456250 0.0
2.357143 3.456250 0.0
2.400000 3.456250 0.0
2.442857 3.456250 0.0
2.485714 3.456250 0.0
2.528571 3.456250 0.0
2.571429 3.456250 0.0
2.614286 3.456250 0.0
2.657143 3.456250 0.0
2.700000 3.456250 0.0
2.742857 3.456250 0.0
2.785714 3.456250 0.0
2.828571 3.456250 0.0
2.871429 3.456250 0.0
2.914286 3.456250 0.0
2.957143 3.456250 0.0
3.000000 3.456250 0.0
1.500000 3.500000 0.0
1.542857 3.500000 0.0
1.585714 3.500000 0.0
1.628571 3.500000 0.0
1.671429 3.500000 0.0
1.714286 3.500000 0.0
1.757143 3.500000 0.0
1.800000 3.500000 0.0
1.842857 3.500000 0.0
1.885714 3.500000 0.0
1.928571 3.500000 0.0
1.971429 3.500000 0.0
2.014286 3.500000 0.0
2.057143 3.500000 0.0
2.100000 3.500000 0.0
2.142857 3.500000 0.0
2.185714 3.500000 0.0
2.228571 3.500000 0.0
2.271429 3.500000 0.0
2.314286 3.500000 0.0
2.357143 3.500000 0.0
2.400000 3.500000 0.0
2.442857 3.500000 0.0
2.485714 3.500000 0.0
2.528571 3.500000 0.0
2.571429 3.500000 0.0
2.614286 3.500000 0.0
2.657143 3.500000 0.0
2.700000 3.500000 0.0
2.742857 3.500000 0.0
2.785714 3.500000 0.0
2.828571 3.500000 0.0
2.871429 3.500000 0.0
2.914286 3.500000 0.0
2.957143 3.500000 0.0
3.000000 3.500000 0.0
</DataArray></Points>
<PointData>
<DataArray NumberOfComponents="1" format="ascii" type ="Float32" Name="phi">
-0.093389
-0.093553
-0.094081
-0.094938
-0.096078
-0.097436
-0.098943
-0.100542
-0.102184
-0.103827
-0.105450
-0.107083
-0.108795
-0.110592
-0.112353
-0.113978
-0.115452
-0.116798
-0.118024
-0.119123
-0.120096
-0.120954
-0.121707
-0.122365
-0.122936
-0.123429
-0.123852
-0.124214
-0.124523
-0.124788
-0.125016
-0.125213
-0.125385
-0.125529
-0.125632
-0.136608
-0.137143
-0.137305
-0.137829
-0.138680
-0.139813
-0.141164
-0.142667
-0.144263
-0.145904
-0.147547
-0.149169
-0.150802
-0.152511
-0.154304
-0.156068
-0.157699
-0.159179
-0.160529
-0.161758
-0.162860
-0.163835
-0.164696
-0.165451
-0.166110
-0.166682
-0.167176
-0.167600
-0.167962
-0.168272
-0.168537
-0.168765
-0.168962
-0.169134
-0.169279
-0.169382
-0.169420
-0.180898
-0.181059
-0.181579
-0.182423
-0.183549
-0.184894
-0.186393
-0.187985
-0.189624
-0.191267
-0.192890
-0.194521
-0.196228
-0.198017
-0.199783
-0.201420
-0.202906
-0.204259
-0.205492
-0.206597
-0.207575
-0.208438
-0.209195
-0.209855
-0.210428
-0.210923
-0.211347
-0.211710
-0.212021
-0.212286
-0.212514
-0.212712
-0.212884
-0.213028
-0.213131
-0.213170
-0.224656
-0.224816
-0.225331
-0.226169
-0.227288
-0.228626
-0.230119
-0.231708
-0.233346
-0.234988
-0.236611
-0.238242
-0.239946
-0.241732
-0.243499
-0.245142
-0.246633
-0.247990
-0.249226
-0.250334
-0.251315
-0.252179
-0.252938
-0.253600
-0.254174
-0.254670
-0.255095
-0.255459
-0.255769
-0.256035
-0.256263
-0.256461
-0.256633
-0.256778
-0.256881
-0.256920
-0.268416
-0.268574
-0.269085
-0.269916
-0.271028
-0.272360
-0.273848
-0.275433
-0.277069
-0.278710
-0.280333
-0.281964
-0.283665
-0.285448
-0.287216
-0.288865
-0.290360
-0.291721
-0.292960
-0.294071
-0.295055
-0.295921
-0.296682
-0.297345
-0.297920
-0.298417
-0.298843
-0.299207
-0.299518
-0.299784
-0.300012
-0.300210
-0.300383
-0.300528
-0.300631
-0.300670
-0.312177
-0.312334
-0.312840
-0.313665
-0.314770
-0.316095
-0.317577
-0.319159
-0.320793
-0.322434
-0.324057
-0.325686
-0.327385
-0.329164
-0.330933
-0.332588
-0.334088
-0.335452
-0.336695
-0.337809
-0.338795
-0.339664
-0.340426
-0.341090
-0.341667
-0.342164
-0.342590
-0.342955
-0.343266
-0.343532
-0.343761
-0.343960
-0.344132
-0.344277
-0.344381
-0.344419
-0.355940
-0.356096
-0.356598
-0.357416
-0.358514
-0.359832
-0.361309
-0.362886
-0.364518
-0.366158
-0.367781
-0.369410
-0.371105
-0.372882
-0.374651
-0.376311
-0.377816
-0.379184
-0.380429
-0.381546
-0.382535
-0.383406
-0.384170
-0.384835
-0.385413
-0.385911
-0.386338
-0.386703
-0.387015
-0.387281
-0.387510
-0.387709
-0.387882
-0.388027
-0.388130
-0.388169
-0.399705
-0.399859
-0.400357
-0.401169
-0.402259
-0.403570
-0.405042
-0.406615
-0.408245
-0.409884
-0.411507
-0.413135
-0.414827
-0.416600
-0.418370
-0.420034
-0.421545
-0.422916
-0.424164
-0.425284
-0.426275
-0.427148
-0.427914
-0.428581
-0.429159
-0.429658
-0.430086
-0.430451
-0.430763
-0.431030
-0.431259
-0.431458
-0.431631
-0.431776
-0.431880
-0.431919
-0.443471
-0.443623
-0.444117
-0.444923
-0.446006
-0.447310
-0.448776
-0.450345
-0.451972
-0.453610
-0.455233
-0.456860
-0.458550
-0.460319
-0.462090
-0.463758
-0.465274
-0.466649
-0.467900
-0.469022
-0.470016
-0.470891
-0.471658
-0.472326
-0.472906
-0.473405
-0.473833
-0.474200
-0.474512
-0.474779
-0.475008
-0.475207
-0.475380
-0.475526
-0.475629
-0.475668
-0.487238
-0.487389
-0.487879
-0.488678
-0.489754
-0.491052
-0.492511
-0.494076
-0.495701
-0.497338
-0.498960
-0.500586
-0.502273
-0.504040
-0.505811
-0.507483
-0.509003
-0.510382
-0.511636
-0.512761
-0.513757
-0.514634
-0.515402
-0.516072
-0.516652
-0.517152
-0.517581
-0.517948
-0.518261
-0.518528
-0.518758
-0.518957
-0.519130
-0.519275
-0.519379
-0.519418
-0.531006
-0.531156
-0.531641
-0.532435
-0.533504
-0.534794
-0.536248
-0.537808
-0.539430
-0.541066
-0.542688
-0.544314
-0.545997
-0.547762
-0.549532
-0.551207
-0.552733
-0.554115
-0.555372
-0.556500
-0.557498
-0.558377
-0.559147
-0.559818
-0.560399
-0.560900
-0.561329
-0.561696
-0.562009
-0.562277
-0.562507
-0.562706
-0.562879
-0.563025
-0.563129
-0.563168
-0.574775
-0.574924
-0.575405
-0.576193
-0.577254
-0.578538
-0.579985
-0.581542
-0.583161
-0.584795
-0.586417
-0.588041
-0.589722
-0.591484
-0.593254
-0.594932
-0.596463
-0.597848
-0.599108
-0.600239
-0.601239
-0.602120
-0.602892
-0.603564
-0.604146
-0.604647
-0.605077
-0.605445
-0.605758
-0.606026
-0.606256
-0.606455
-0.606629
-0.606774
-0.606878
-0.606917
-0.618545
-0.618693
-0.619170
-0.619952
-0.621006
-0.622282
-0.623724
-0.625276
-0.626892
-0.628525
-0.630146
-0.631770
-0.633448
-0.635207
-0.636976
-0.638658
-0.640193
-0.641582
-0.642844
-0.643978
-0.644981
-0.645864
-0.646637
-0.647310
-0.647893
-0.648395
-0.648826
-0.649193
-0.649507
-0.649775
-0.650005
-0.650204
-0.650378
-0.650524
-0.650628
-0.650667
-0.662316
-0.662462
-0.662936
-0.663711
-0.664759
-0.666028
-0.667464
-0.669011
-0.670624
-0.672256
-0.673876
-0.675499
-0.677174
-0.678930
-0.680699
-0.682383
-0.683923
-0.685316
-0.686581
-0.687717
-0.688723
-0.689607
-0.690382
-0.691056
-0.691640
-0.692143
-0.692574
-0.692942
-0.693256
-0.693524
-0.693754
-0.693954
-0.694127
-0.694273
-0.694377
-0.694416
-0.706088
-0.706233
-0.706702
-0.707472
-0.708512
-0.709775
-0.711205
-0.712747
-0.714357
-0.715988
-0.717607
-0.719229
-0.720901
-0.722654
-0.724422
-0.726109
-0.727654
-0.729050
-0.730319
-0.731457
-0.732465
-0.733351
-0.734127
-0.734802
-0.735387
-0.735891
-0.736322
-0.736691
-0.737005
-0.737273
-0.737504
-0.737703
-0.737877
-0.738023
-0.738127
-0.738166
-0.749860
-0.750004
-0.750470
-0.751234
-0.752267
-0.753523
-0.754946
-0.756484
-0.758091
-0.759720
-0.761338
-0.762959
-0.764629
-0.766378
-0.768146
-0.769836
-0.771385
-0.772785
-0.774056
-0.775197
-0.776207
-0.777095
-0.777873
-0.778549
-0.779135
-0.779639
-0.780071
-0.780440
-0.780754
-0.781022
-0.781253
-0.781453
-0.781626
-0.781772
-0.781876
-0.781915
-0.793633
-0.793776
-0.794238
-0.794996
-0.796022
-0.797271
-0.798689
-0.800222
-0.801826
-0.803452
-0.805070
-0.806690
-0.808357
-0.810104
-0.811871
-0.813562
-0.815116
-0.816520
-0.817794
-0.818938
-0.819950
-0.820840
-0.821618
-0.822296
-0.822882
-0.823387
-0.823819
-0.824189
-0.824503
-0.824772
-0.825002
-0.825202
-0.825376
-0.825522
-0.825626
-0.825665
-0.837407
-0.837549
-0.838007
-0.838759
-0.839779
-0.841021
-0.842432
-0.843960
-0.845561
-0.847186
-0.848803
-0.850422
-0.852086
-0.853829
-0.855595
-0.857289
-0.858847
-0.860255
-0.861532
-0.862678
-0.863693
-0.864584
-0.865364
-0.866043
-0.866630
-0.867135
-0.867568
-0.867938
-0.868252
-0.868521
-0.868752
-0.868951
-0.869125
-0.869271
-0.869375
-0.869414
-0.881181
-0.881322
-0.881776
-0.882523
-0.883536
-0.884771
-0.886176
-0.887700
-0.889296
-0.890920
-0.892536
-0.894153
-0.895815
-0.897555
-0.899320
-0.901016
-0.902578
-0.903990
-0.905270
-0.906419
-0.907436
-0.908329
-0.909110
-0.909790
-0.910378
-0.910884
-0.911317
-0.911687
-0.912002
-0.912270
-0.912501
-0.912701
-0.912875
-0.913021
-0.913125
-0.913164
-0.924956
-0.925095
-0.925547
-0.926288
-0.927294
-0.928522
-0.929921
-0.931439
-0.933033
-0.934654
-0.936269
-0.937886
-0.939545
-0.941282
-0.943046
-0.944744
-0.946310
-0.947726
-0.949008
-0.950160
-0.951179
-0.952074
-0.952857
-0.953537
-0.954126
-0.954632
-0.955066
-0.955436
-0.955751
-0.956020
-0.956251
-0.956451
-0.956624
-0.956770
-0.956874
-0.956913
-0.946844
-0.946982
-0.947432
-0.948170
-0.949173
-0.950397
-0.951793
-0.953310
-0.954901
-0.956522
-0.958136
-0.959752
-0.961410
-0.963145
-0.964909
-0.966608
-0.968176
-0.969594
-0.970877
-0.972030
-0.973050
-0.973946
-0.974730
-0.975411
-0.976000
-0.976507
-0.976941
-0.977311
-0.977626
-0.977895
-0.978126
-0.978325
-0.978499
-0.978645
-0.978749
-0.978788
</DataArray>
<DataArray NumberOfComponents="1" format="ascii" type ="Float32" Name="u">
-0.000020
0.000875
0.001743
0.002558
0.003299
0.003953
0.004512
0.004980
0.005366
0.005689
0.005976
0.006276
0.006647
0.007117
0.007462
0.007691
0.007834
0.007917
0.007955
0.007962
0.007945
0.007912
0.007866
0.007813
0.007755
0.007695
0.007635
0.007578
0.007525
0.007477
0.007436
0.007401
0.007375
0.007356
0.007344
0.007344
-0.000011
0.000805
0.001600
0.002352
0.003045
0.003668
0.004218
0.004696
0.005113
0.005484
0.005828
0.006171
0.006531
0.006894
0.007193
0.007420
0.007583
0.007693
0.007763
0.007800
0.007813
0.007807
0.007788
0.007758
0.007722
0.007681
0.007639
0.007597
0.007556
0.007519
0.007485
0.007456
0.007432
0.007413
0.007397
0.007397
-0.000007
0.000738
0.001467
0.002162
0.002811
0.003404
0.003940
0.004419
0.004848
0.005238
0.005601
0.005949
0.006286
0.006601
0.006874
0.007095
0.007267
0.007396
0.007489
0.007551
0.007590
0.007609
0.007613
0.007605
0.007589
0.007567
0.007542
0.007514
0.007487
0.007460
0.007435
0.007413
0.007393
0.007376
0.007362
0.007362
-0.000006
0.000678
0.001348
0.001993
0.002600
0.003164
0.003681
0.004152
0.004581
0.004975
0.005340
0.005683
0.006003
0.006296
0.006554
0.006771
0.006949
0.007091
0.007200
0.007282
0.007341
0.007381
0.007405
0.007417
0.007420
0.007415
0.007405
0.007391
0.007375
0.007359
0.007342
0.007326
0.007311
0.007298
0.007288
0.007288
-0.000006
0.000625
0.001245
0.001845
0.002415
0.002950
0.003447
0.003905
0.004328
0.004718
0.005079
0.005414
0.005723
0.006004
0.006253
0.006469
0.006651
0.006802
0.006925
0.007022
0.007097
0.007154
0.007196
0.007224
0.007243
0.007252
0.007256
0.007254
0.007249
0.007242
0.007233
0.007223
0.007213
0.007204
0.007195
0.007195
-0.000006
0.000579
0.001156
0.001717
0.002254
0.002762
0.003239
0.003683
0.004095
0.004478
0.004832
0.005160
0.005461
0.005734
0.005979
0.006194
0.006380
0.006538
0.006670
0.006780
0.006869
0.006940
0.006996
0.007038
0.007070
0.007093
0.007108
0.007117
0.007122
0.007122
0.007120
0.007116
0.007110
0.007104
0.007097
0.007097
-0.000006
0.000541
0.001081
0.001607
0.002115
0.002598
0.003055
0.003484
0.003885
0.004258
0.004605
0.004926
0.005221
0.005489
0.005731
0.005946
0.006135
0.006299
0.006439
0.006559
0.006659
0.006741
0.006809
0.006864
0.006907
0.006940
0.006966
0.006984
0.006997
0.007005
0.007008
0.007009
0.007007
0.007003
0.006997
0.006997
-0.000006
0.000508
0.001016
0.001513
0.001994
0.002455
0.002893
0.003308
0.003697
0.004061
0.004400
0.004714
0.005003
0.005268
0.005508
0.005724
0.005915
0.006084
0.006231
0.006358
0.006467
0.006560
0.006637
0.006702
0.006755
0.006797
0.006831
0.006858
0.006877
0.006891
0.006900
0.006905
0.006906
0.006904
0.006899
0.006899
-0.000006
0.000479
0.000960
0.001432
0.001889
0.002330
0.002752
0.003152
0.003529
0.003884
0.004215
0.004524
0.004808
0.005070
0.005309
0.005525
0.005719
0.005891
0.006044
0.006178
0.006294
0.006394
0.006480
0.006553
0.006614
0.006665
0.006706
0.006739
0.006765
0.006784
0.006797
0.006805
0.006809
0.006808
0.006804
0.006804
-0.000006
0.000455
0.000912
0.001362
0.001799
0.002222
0.002628
0.003015
0.003381
0.003727
0.004052
0.004354
0.004635
0.004894
0.005132
0.005348
0.005544
0.005719
0.005876
0.006015
0.006138
0.006245
0.006337
0.006417
0.006485
0.006542
0.006590
0.006629
0.006659
0.006683
0.006700
0.006711
0.006717
0.006717
0.006714
0.006714
-0.000005
0.000435
0.000871
0.001301
0.001721
0.002128
0.002520
0.002895
0.003252
0.003589
0.003907
0.004204
0.004482
0.004738
0.004975
0.005191
0.005389
0.005567
0.005727
0.005871
0.005998
0.006111
0.006209
0.006294
0.006368
0.006431
0.006483
0.006527
0.006562
0.006589
0.006610
0.006623
0.006630
0.006632
0.006629
0.006629
-0.000005
0.000417
0.000836
0.001250
0.001654
0.002047
0.002427
0.002791
0.003139
0.003469
0.003780
0.004073
0.004347
0.004602
0.004837
0.005054
0.005252
0.005433
0.005596
0.005743
0.005874
0.005991
0.006094
0.006184
0.006263
0.006330
0.006387
0.006435
0.006473
0.006504
0.006526
0.006542
0.006551
0.006553
0.006550
0.006550
-0.000005
0.000402
0.000807
0.001206
0.001597
0.001978
0.002347
0.002702
0.003041
0.003365
0.003671
0.003959
0.004230
0.004483
0.004717
0.004934
0.005133
0.005315
0.005481
0.005630
0.005765
0.005885
0.005992
0.006086
0.006169
0.006240
0.006300
0.006351
0.006393
0.006426
0.006450
0.006467
0.006477
0.006480
0.006478
0.006478
-0.000005
0.000390
0.000781
0.001168
0.001548
0.001919
0.002278
0.002625
0.002957
0.003275
0.003576
0.003861
0.004129
0.004379
0.004613
0.004829
0.005029
0.005212
0.005379
0.005531
0.005668
0.005792
0.005901
0.005999
0.006084
0.006158
0.006221
0.006275
0.006319
0.006354
0.006380
0.006398
0.006409
0.006412
0.006410
0.006410
-0.000004
0.000379
0.000759
0.001136
0.001506
0.001867
0.002218
0.002557
0.002883
0.003195
0.003492
0.003773
0.004038
0.004286
0.004518
0.004734
0.004934
0.005117
0.005286
0.005439
0.005578
0.005703
0.005815
0.005915
0.006002
0.006079
0.006144
0.006199
0.006245
0.006281
0.006309
0.006328
0.006339
0.006343
0.006341
0.006341
-0.000004
0.000368
0.000738
0.001105
0.001465
0.001817
0.002160
0.002491
0.002810
0.003116
0.003407
0.003684
0.003945
0.004191
0.004420
0.004634
0.004833
0.005016
0.005184
0.005337
0.005477
0.005603
0.005716
0.005817
0.005905
0.005983
0.006050
0.006106
0.006153
0.006190
0.006218
0.006238
0.006249
0.006253
0.006251
0.006251
-0.000004
0.000355
0.000712
0.001065
0.001413
0.001754
0.002085
0.002406
0.002715
0.003012
0.003295
0.003564
0.003818