<VTKFile type="StructuredGrid" version="0.1" byte_order="LittleEndian">
<StructuredGrid WholeExtent="1 71 1 81 0 0">
<Piece Extent="36 71 41 61 0 0">
<PointData></PointData>
<CellData></CellData>
<Points>
<DataArray NumberOfComponents="3" format="ascii" type ="Float32" Name="mesh">
1.500000 1.750000 0.0
1.542857 1.750000 0.0
1.585714 1.750000 0.0
1.628571 1.750000 0.0
1.671429 1.750000 0.0
1.714286 1.750000 0.0
1.757143 1.750000 0.0
1.800000 1.750000 0.0
1.842857 1.750000 0.0
1.885714 1.750000 0.0
1.928571 1.750000 0.0
1.971429 1.750000 0.0
2.014286 1.750000 0.0
2.057143 1.750000 0.0
2.100000 1.750000 0.0
2.142857 1.750000 0.0
2.185714 1.750000 0.0
2.228571 1.750000 0.0
2.271429 1.750000 0.0
2.314286 1.750000 0.0
2.357143 1.750000 0.0
2.400000 1.750000 0.0
2.442857 1.750000 0.0
2.485714 1.750000 0.0
2.528571 1.750000 0.0
2.571429 1.750000 0.0
2.614286 1.750000 0.0
2.657143 1.750000 0.0
2.700000 1.750000 0.0
2.742857 1.750000 0.0
2.785714 1.750000 0.0
2.828571 1.750000 0.0
2.871429 1.750000 0.0
2.914286 1.750000 0.0
2.957143 1.750000 0.0
3.000000 1.750000 0.0
1.500000 1.793750 0.0
1.542857 1.793750 0.0
1.585714 1.793750 0.0
1.628571 1.793750 0.0
1.671429 1.793750 0.0
1.714286 1.793750 0.0
1.757143 1.793750 0.0
1.800000 1.793750 0.0
1.842857 1.793750 0.0
1.885714 1.793750 0.0
1.928571 1.793750 0.0
1.971429 1.793750 0.0
2.014286 1.793750 0.0
2.057143 1.793750 0.0
2.100000 1.793750 0.0
2.142857 1.793750 0.0
2.185714 1.793750 0.0
2.228571 1.793750 0.0
2.271429 1.793750 0.0
2.314286 1.793750 0.0
2.357143 1.793750 0.0
2.400000 1.793750 0.0
2.442857 1.793750 0.0
2.485714 1.793750 0.0
2.528571 1.793750 0.0
2.571429 1.793750 0.0
2.614286 1.793750 0.0
2.657143 1.793750 0.0
2.700000 1.793750 0.0
2.742857 1.793750 0.0
2.785714 1.793750 0.0
2.828571 1.793750 0.0
2.871429 1.793750 0.0
2.914286 1.793750 0.0
2.957143 1.793750 0.0
3.000000 1.793750 0.0
1.500000 1.837500 0.0
1.542857 1.837500 0.0
1.585714 1.837500 0.0
1.628571 1.837500 0.0
1.671429 1.837500 0.0
1.714286 1.837500 0.0
1.757143 1.837500 0.0
1.800000 1.837500 0.0
1.842857 1.837500 0.0
1.885714 1.837500 0.0
1.928571 1.837500 0.0
1.971429 1.837500 0.0
2.014286 1.837500 0.0
2.057143 1.837500 0.0
2.100000 1.837500 0.0
2.142857 1.837500 0.0
2.185714 1.837500 0.0
2.228571 1.837500 0.0
2.271429 1.837500 0.0
2.314286 1.837500 0.0
2.357143 1.837500 0.0
2.400000 1.837500 0.0
2.442857 1.837500 0.0
2.485714 1.837500 0.0
2.528571 1.837500 0.0
2.571429 1.837500 0.0
2.614286 1.837500 0.0
2.657143 1.837500 0.0
2.700000 1.837500 0.0
2.742857 1.837500 0.0
2.785714 1.837500 0.0
2.828571 1.837500 0.0
2.871429 1.837500 0.0
2.914286 1.837500 0.0
2.957143 1.837500 0.0
3.000000 1.837500 0.0
1.500000 1.881250 0.0
1.542857 1.881250 0.0
1.585714 1.881250 0.0
1.628571 1.881250 0.0
1.671429 1.881250 0.0
1.714286 1.881250 0.0
1.757143 1.881250 0.0
1.800000 1.881250 0.0
1.842857 1.881250 0.0
1.885714 1.881250 0.0
1.928571 1.881250 0.0
1.971429 1.881250 0.0
2.014286 1.881250 0.0
2.057143 1.881250 0.0
2.100000 1.881250 0.0
2.142857 1.881250 0.0
2.185714 1.881250 0.0
2.228571 1.881250 0.0
2.271429 1.881250 0.0
2.314286 1.881250 0.0
2.357143 1.881250 0.0
2.400000 1.881250 0.0
2.442857 1.881250 0.0
2.485714 1.881250 0.0
2.528571 1.881250 0.0
2.571429 1.881250 0.0
2.614286 1.881250 0.0
2.657143 1.881250 0.0
2.700000 1.881250 0.0
2.742857 1.881250 0.0
2.785714 1.881250 0.0
2.828571 1.881250 0.0
2.871429 1.881250 0.0
2.914286 1.881250 0.0
2.957143 1.881250 0.0
3.000000 1.881250 0.0
1.500000 1.925000 0.0
1.542857 1.925000 0.0
1.585714 1.925000 0.0
1.628571 1.925000 0.0
1.671429 1.925000 0.0
1.714286 1.925000 0.0
1.757143 1.925000 0.0
1.800000 1.925000 0.0
1.842857 1.925000 0.0
1.885714 1.925000 0.0
1.928571 1.925000 0.0
1.971429 1.925000 0.0
2.014286 1.925000 0.0
2.057143 1.925000 0.0
2.100000 1.925000 0.0
2.142857 1.925000 0.0
2.185714 1.925000 0.0
2.228571 1.925000 0.0
2.271429 1.925000 0.0
2.314286 1.925000 0.0
2.357143 1.925000 0.0
2.400000 1.925000 0.0
2.442857 1.925000 0.0
2.485714 1.925000 0.0
2.528571 1.925000 0.0
2.571429 1.925000 0.0
2.614286 1.925000 0.0
2.657143 1.925000 0.0
2.700000 1.925000 0.0
2.742857 1.925000 0.0
2.785714 1.925000 0.0
2.828571 1.925000 0.0
2.871429 1.925000 0.0
2.914286 1.925000 0.0
2.957143 1.925000 0.0
3.000000 1.925000 0.0
1.500000 1.968750 0.0
1.542857 1.968750 0.0
1.585714 1.968750 0.0
1.628571 1.968750 0.0
1.671429 1.968750 0.0
1.714286 1.968750 0.0
1.757143 1.968750 0.0
1.800000 1.968750 0.0
1.842857 1.968750 0.0
1.885714 1.968750 0.0
1.928571 1.968750 0.0
1.971429 1.968750 0.0
2.014286 1.968750 0.0
2.057143 1.968750 0.0
2.100000 1.968750 0.0
2.142857 1.968750 0.0
2.185714 1.968750 0.0
2.228571 1.968750 0.0
2.271429 1.968750 0.0
2.314286 1.968750 0.0
2.357143 1.968750 0.0
2.400000 1.968750 0.0
2.442857 1.968750 0.0
2.485714 1.968750 0.0
2.528571 1.968750 0.0
2.571429 1.968750 0.0
2.614286 1.968750 0.0
2.657143 1.968750 0.0
2.700000 1.968750 0.0
2.742857 1.968750 0.0
2.785714 1.968750 0.0
2.828571 1.968750 0.0
2.871429 1.968750 0.0
2.914286 1.968750 0.0
2.957143 1.968750 0.0
3.000000 1.968750 0.0
1.500000 2.012500 0.0
1.542857 2.012500 0.0
1.585714 2.012500 0.0
1.628571 2.012500 0.0
1.671429 2.012500 0.0
1.714286 2.012500 0.0
1.757143 2.012500 0.0
1.800000 2.012500 0.0
1.842857 2.012500 0.0
1.885714 2.012500 0.0
1.928571 2.012500 0.0
1.971429 2.012500 0.0
2.014286 2.012500 0.0
2.057143 2.012500 0.0
2.100000 2.012500 0.0
2.142857 2.012500 0.0
2.185714 2.012500 0.0
2.228571 2.012500 0.0
2.271429 2.012500 0.0
2.314286 2.012500 0.0
2.357143 2.012500 0.0
2.400000 2.012500 0.0
2.442857 2.012500 0.0
2.485714 2.012500 0.0
2.528571 2.012500 0.0
2.571429 2.012500 0.0
2.614286 2.012500 0.0
2.657143 2.012500 0.0
2.700000 2.012500 0.0
2.742857 2.012500 0.0
2.785714 2.012500 0.0
2.828571 2.012500 0.0
2.871429 2.012500 0.0
2.914286 2.012500 0.0
2.957143 2.012500 0.0
3.000000 2.012500 0.0
1.500000 2.056250 0.0
1.542857 2.056250 0.0
1.585714 2.056250 0.0
1.628571 2.056250 0.0
1.671429 2.056250 0.0
1.714286 2.056250 0.0
1.757143 2.056250 0.0
1.800000 2.056250 0.0
1.842857 2.056250 0.0
1.885714 2.056250 0.0
1.928571 2.056250 0.0
1.971429 2.056250 0.0
2.014286 2.056250 0.0
2.057143 2.056250 0.0
2.100000 2.056250 0.0
2.142857 2.056250 0.0
2.185714 2.056250 0.0
2.228571 2.056250 0.0
2.271429 2.056250 0.0
2.314286 2.056250 0.0
2.357143 2.056250 0.0
2.400000 2.056250 0.0
2.442857 2.056250 0.0
2.485714 2.056250 0.0
2.528571 2.056250 0.0
2.571429 2.056250 0.0
2.614286 2.056250 0.0
2.657143 2.056250 0.0
2.700000 2.056250 0.0
2.742857 2.056250 0.0
2.785714 2.056250 0.0
2.828571 2.056250 0.0
2.871429 2.056250 0.0
2.914286 2.056250 0.0
2.957143 2.056250 0.0
3.000000 2.056250 0.0
1.500000 2.100000 0.0
1.542857 2.100000 0.0
1.585714 2.100000 0.0
1.628571 2.100000 0.0
1.671429 2.100000 0.0
1.714286 2.100000 0.0
1.757143 2.100000 0.0
1.800000 2.100000 0.0
1.842857 2.100000 0.0
1.885714 2.100000 0.0
1.928571 2.100000 0.0
1.971429 2.100000 0.0
2.014286 2.100000 0.0
2.057143 2.100000 0.0
2.100000 2.100000 0.0
2.142857 2.100000 0.0
2.185714 2.100000 0.0
2.228571 2.100000 0.0
2.271429 2.100000 0.0
2.314286 2.100000 0.0
2.357143 2.100000 0.0
2.400000 2.100000 0.0
2.442857 2.100000 0.0
2.485714 2.100000 0.0
2.528571 2.100000 0.0
2.571429 2.100000 0.0
2.614286 2.100000 0.0
2.657143 2.100000 0.0
2.700000 2.100000 0.0
2.742857 2.100000 0.0
2.785714 2.100000 0.0
2.828571 2.100000 0.0
2.871429 2.100000 0.0
2.914286 2.100000 0.0
2.957143 2.100000 0.0
3.000000 2.100000 0.0
1.500000 2.143750 0.0
1.542857 2.143750 0.0
1.585714 2.143750 0.0
1.628571 2.143750 0.0
1.671429 2.143750 0.0
1.714286 2.143750 0.0
1.757143 2.143750 0.0
1.800000 2.143750 0.0
1.842857 2.143750 0.0
1.885714 2.143750 0.0
1.928571 2.143750 0.0
1.971429 2.143750 0.0
2.014286 2.143750 0.0
2.057143 2.143750 0.0
2.100000 2.143750 0.0
2.142857 2.143750 0.0
2.185714 2.143750 0.0
2.228571 2.143750 0.0
2.271429 2.143750 0.0
2.314286 2.143750 0.0
2.357143 2.143750 0.0
2.400000 2.143750 0.0
2.442857 2.143750 0.0
2.485714 2.143750 0.0
2.528571 2.143750 0.0
2.571429 2.143750 0.0
2.614286 2.143750 0.0
2.657143 2.143750 0.0
2.700000 2.143750 0.0
2.742857 2.143750 0.0
2.785714 2.143750 0.0
2.828571 2.143750 0.0
2.871429 2.143750 0.0
2.914286 2.143750 0.0
2.957143 2.143750 0.0
3.000000 2.143750 0.0
1.500000 2.187500 0.0
1.542857 2.187500 0.0
1.585714 2.187500 0.0
1.628571 2.187500 0.0
1.671429 2.187500 0.0
1.714286 2.187500 0.0
1.757143 2.187500 0.0
1.800000 2.187500 0.0
1.842857 2.187500 0.0
1.885714 2.187500 0.0
1.928571 2.187500 0.0
1.971429 2.187500 0.0
2.014286 2.187500 0.0
2.057143 2.187500 0.0
2.100000 2.187500 0.0
2.142857 2.187500 0.0
2.185714 2.187500 0.0
2.228571 2.187500 0.0
2.271429 2.187500 0.0
2.314286 2.187500 0.0
2.357143 2.187500 0.0
2.400000 2.187500 0.0
2.442857 2.187500 0.0
2.485714 2.187500 0.0
2.528571 2.187500 0.0
2.571429 2.187500 0.0
2.614286 2.187500 0.0
2.657143 2.187500 0.0
2.700000 2.187500 0.0
2.742857 2.187500 0.0
2.785714 2.187500 0.0
2.828571 2.187500 0.0
2.871429 2.187500 0.0
2.914286 2.187500 0.0
2.957143 2.187500 0.0
3.000000 2.187500 0.0
1.500000 2.231250 0.0
1.542857 2.231250 0.0
1.585714 2.231250 0.0
1.628571 2.231250 0.0
1.671429 2.231250 0.0
1.714286 2.231250 0.0
1.757143 2.231250 0.0
1.800000 2.231250 0.0
1.842857 2.231250 0.0
1.885714 2.231250 0.0
1.928571 2.231250 0.0
1.971429 2.231250 0.0
2.014286 2.231250 0.0
2.057143 2.231250 0.0
2.100000 2.231250 0.0
2.142857 2.231250 0.0
2.185714 2.231250 0.0
2.228571 2.231250 0.0
2.271429 2.231250 0.0
2.314286 2.231250 0.0
2.357143 2.231250 0.0
2.400000 2.231250 0.0
2.442857 2.231250 0.0
2.485714 2.231250 0.0
2.528571 2.231250 0.0
2.571429 2.231250 0.0
2.614286 2.231250 0.0
2.657143 2.231250 0.0
2.700000 2.231250 0.0
2.742857 2.231250 0.0
2.785714 2.231250 0.0
2.828571 2.231250 0.0
2.871429 2.231250 0.0
2.914286 2.231250 0.0
2.957143 2.231250 0.0
3.000000 2.231250 0.0
1.500000 2.275000 0.0
1.542857 2.275000 0.0
1.585714 2.275000 0.0
1.628571 2.275000 0.0
1.671429 2.275000 0.0
1.714286 2.275000 0.0
1.757143 2.275000 0.0
1.800000 2.275000 0.0
1.842857 2.275000 0.0
1.885714 2.275000 0.0
1.928571 2.275000 0.0
1.971429 2.275000 0.0
2.014286 2.275000 0.0
2.057143 2.275000 0.0
2.100000 2.275000 0.0
2.142857 2.275000 0.0
2.185714 2.275000 0.0
2.228571 2.275000 0.0
2.271429 2.275000 0.0
2.314286 2.275000 0.0
2.357143 2.275000 0.0
2.400000 2.275000 0.0
2.442857 2.275000 0.0
2.485714 2.275000 0.0
2.528571 2.275000 0.0
2.571429 2.275000 0.0
2.614286 2.275000 0.0
2.657143 2.275000 0.0
2.700000 2.275000 0.0
2.742857 2.275000 0.0
2.785714 2.275000 0.0
2.828571 2.275000 0.0
2.871429 2.275000 0.0
2.914286 2.275000 0.0
2.957143 2.275000 0.0
3.000000 2.275000 0.0
1.500000 2.318750 0.0
1.542857 2.318750 0.0
1.585714 2.318750 0.0
1.628571 2.318750 0.0
1.671429 2.318750 0.0
1.714286 2.318750 0.0
1.757143 2.318750 0.0
1.800000 2.318750 0.0
1.842857 2.318750 0.0
1.885714 2.318750 0.0
1.928571 2.318750 0.0
1.971429 2.318750 0.0
2.014286 2.318750 0.0
2.057143 2.318750 0.0
2.100000 2.318750 0.0
2.142857 2.318750 0.0
2.185714 2.318750 0.0
2.228571 2.318750 0.0
2.271429 2.318750 0.0
2.314286 2.318750 0.0
2.357143 2.318750 0.0
2.400000 2.318750 0.0
2.442857 2.318750 0.0
2.485714 2.318750 0.0
2.528571 2.318750 0.0
2.571429 2.318750 0.0
2.614286 2.318750 0.0
2.657143 2.318750 0.0
2.700000 2.318750 0.0
2.742857 2.318750 0.0
2.785714 2.318750 0.0
2.828571 2.318750 0.0
2.871429 2.318750 0.0
2.914286 2.318750 0.0
2.957143 2.318750 0.0
3.000000 2.318750 0.0
1.500000 2.362500 0.0
1.542857 2.362500 0.0
1.585714 2.362500 0.0
1.628571 2.362500 0.0
1.671429 2.362500 0.0
1.714286 2.362500 0.0
1.757143 2.362500 0.0
1.800000 2.362500 0.0
1.842857 2.362500 0.0
1.885714 2.362500 0.0
1.928571 2.362500 0.0
1.971429 2.362500 0.0
2.014286 2.362500 0.0
2.057143 2.362500 0.0
2.100000 2.362500 0.0
2.142857 2.362500 0.0
2.185714 2.362500 0.0
2.228571 2.362500 0.0
2.271429 2.362500 0.0
2.314286 2.362500 0.0
2.357143 2.362500 0.0
2.400000 2.362500 0.0
2.442857 2.362500 0.0
2.485714 2.362500 0.0
2.528571 2.362500 0.0
2.571429 2.362500 0.0
2.614286 2.362500 0.0
2.657143 2.362500 0.0
2.700000 2.362500 0.0
2.742857 2.362500 0.0
2.785714 2.362500 0.0
2.828571 2.362500 0.0
2.871429 2.362500 0.0
2.914286 2.362500 0.0
2.957143 2.362500 0.0
3.000000 2.362500 0.0
1.500000 2.406250 0.0
1.542857 2.406250 0.0
1.585714 2.406250 0.0
1.628571 2.406250 0.0
1.671429 2.406250 0.0
1.714286 2.406250 0.0
1.757143 2.406250 0.0
1.800000 2.406250 0.0
1.842857 2.406250 0.0
1.885714 2.406250 0.0
1.928571 2.406250 0.0
1.971429 2.406250 0.0
2.014286 2.406250 0.0
2.057143 2.406250 0.0
2.100000 2.406250 0.0
2.142857 2.406250 0.0
2.185714 2.406250 0.0
2.228571 2.406250 0.0
2.271429 2.406250 0.0
2.314286 2.406250 0.0
2.357143 2.406250 0.0
2.400000 2.406250 0.0
2.442857 2.406250 0.0
2.485714 2.406250 0.0
2.528571 2.406250 0.0
2.571429 2.406250 0.0
2.614286 2.406250 0.0
2.657143 2.406250 0.0
2.700000 2.406250 0.0
2.742857 2.406250 0.0
2.785714 2.406250 0.0
2.828571 2.406250 0.0
2.871429 2.406250 0.0
2.914286 2.406250 0.0
2.957143 2.406250 0.0
3.000000 2.406250 0.0
1.500000 2.450000 0.0
1.542857 2.450000 0.0
1.585714 2.450000 0.0
1.628571 2.450000 0.0
1.671429 2.450000 0.0
1.714286 2.450000 0.0
1.757143 2.450000 0.0
1.800000 2.450000 0.0
1.842857 2.450000 0.0
1.885714 2.450000 0.0
1.928571 2.450000 0.0
1.971429 2.450000 0.0
2.014286 2.450000 0.0
2.057143 2.450000 0.0
2.100000 2.450000 0.0
2.142857 2.450000 0.0
2.185714 2.450000 0.0
2.228571 2.450000 0.0
2.271429 2.450000 0.0
2.314286 2.450000 0.0
2.357143 2.450000 0.0
2.400000 2.450000 0.0
2.442857 2.450000 0.0
2.485714 2.450000 0.0
2.528571 2.450000 0.0
2.571429 2.450000 0.0
2.614286 2.450000 0.0
2.657143 2.450000 0.0
2.700000 2.450000 0.0
2.742857 2.450000 0.0
2.785714 2.450000 0.0
2.828571 2.450000 0.0
2.871429 2.450000 0.0
2.914286 2.450000 0.0
2.957143 2.450000 0.0
3.000000 2.450000 0.0
1.500000 2.493750 0.0
1.542857 2.493750 0.0
1.585714 2.493750 0.0
1.628571 2.493750 0.0
1.671429 2.493750 0.0
1.714286 2.493750 0.0
1.757143 2.493750 0.0
1.800000 2.493750 0.0
1.842857 2.493750 0.0
1.885714 2.493750 0.0
1.928571 2.493750 0.0
1.971429 2.493750 0.0
2.014286 2.493750 0.0
2.057143 2.493750 0.0
2.100000 2.493750 0.0
2.142857 2.493750 0.0
2.185714 2.493750 0.0
2.228571 2.493750 0.0
2.271429 2.493750 0.0
2.314286 2.493750 0.0
2.357143 2.493750 0.0
2.400000 2.493750 0.0
2.442857 2.493750 0.0
2.485714 2.493750 0.0
2.528571 2.493750 0.0
2.571429 2.493750 0.0
2.614286 2.493750 0.0
2.657143 2.493750 0.0
2.700000 2.493750 0.0
2.742857 2.493750 0.0
2.785714 2.493750 0.0
2.828571 2.493750 0.0
2.871429 2.493750 0.0
2.914286 2.493750 0.0
2.957143 2.493750 0.0
3.000000 2.493750 0.0
1.500000 2.537500 0.0
1.542857 2.537500 0.0
1.585714 2.537500 0.0
1.628571 2.537500 0.0
1.671429 2.537500 0.0
1.714286 2.537500 0.0
1.757143 2.537500 0.0
1.800000 2.537500 0.0
1.842857 2.537500 0.0
1.885714 2.537500 0.0
1.928571 2.537500 0.0
1.971429 2.537500 0.0
2.014286 2.537500 0.0
2.057143 2.537500 0.0
2.100000 2.537500 0.0
2.142857 2.537500 0.0
2.185714 2.537500 0.0
2.228571 2.537500 0.0
2.271429 2.537500 0.0
2.314286 2.537500 0.0
2.357143 2.537500 0.0
2.400000 2.537500 0.0
2.442857 2.537500 0.0
2.485714 2.537500 0.0
2.528571 2.537500 0.0
2.571429 2.537500 0.0
2.614286 2.537500 0.0
2.657143 2.537500 0.0
2.700000 2.537500 0.0
2.742857 2.537500 0.0
2.785714 2.537500 0.0
2.828571 2.537500 0.0
2.871429 2.537500 0.0
2.914286 2.537500 0.0
2.957143 2.537500 0.0
3.000000 2.537500 0.0
1.500000 2.581250 0.0
1.542857 2.581250 0.0
1.585714 2.581250 0.0
1.628571 2.581250 0.0
1.671429 2.581250 0.0
1.714286 2.581250 0.0
1.757143 2.581250 0.0
1.800000 2.581250 0.0
1.842857 2.581250 0.0
1.885714 2.581250 0.0
1.928571 2.581250 0.0
1.971429 2.581250 0.0
2.014286 2.581250 0.0
2.057143 2.581250 0.0
2.100000 2.581250 0.0
2.142857 2.581250 0.0
2.185714 2.581250 0.0
2.228571 2.581250 0.0
2.271429 2.581250 0.0
2.314286 2.581250 0.0
2.357143 2.581250 0.0
2.400000 2.581250 0.0
2.442857 2.581250 0.0
2.485714 2.581250 0.0
2.528571 2.581250 0.0
2.571429 2.581250 0.0
2.614286 2.581250 0.0
2.657143 2.581250 0.0
2.700000 2.581250 0.0
2.742857 2.581250 0.0
2.785714 2.581250 0.0
2.828571 2.581250 0.0
2.871429 2.581250 0.0
2.914286 2.581250 0.0
2.957143 2.581250 0.0
3.000000 2.581250 0.0
1.500000 2.625000 0.0
1.542857 2.625000 0.0
1.585714 2.625000 0.0
1.628571 2.625000 0.0
1.671429 2.625000 0.0
1.714286 2.625000 0.0
1.757143 2.625000 0.0
1.800000 2.625000 0.0
1.842857 2.625000 0.0
1.885714 2.625000 0.0
1.928571 2.625000 0.0
1.971429 2.625000 0.0
2.014286 2.625000 0.0
2.057143 2.625000 0.0
2.100000 2.625000 0.0
2.142857 2.625000 0.0
2.185714 2.625000 0.0
2.228571 2.625000 0.0
2.271429 2.625000 0.0
2.314286 2.625000 0.0
2.357143 2.625000 0.0
2.400000 2.625000 0.0
2.442857 2.625000 0.0
2.485714 2.625000 0.0
2.528571 2.625000 0.0
2.571429 2.625000 0.0
2.614286 2.625000 0.0
2.657143 2.625000 0.0
2.700000 2.625000 0.0
2.742857 2.625000 0.0
2.785714 2.625000 0.0
2.828571 2.625000 0.0
2.871429 2.625000 0.0
2.914286 2.625000 0.0
2.957143 2.625000 0.0
3.000000 2.625000 0.0
</DataArray></Points>
<PointData>
<DataArray NumberOfComponents="1" format="ascii" type ="Float32" Name="phi">
-0.324729
-0.318639
-0.303437
-0.282833
-0.256553
-0.225339
-0.190858
-0.154379
-0.116672
-0.078171
-0.039260
0.002634
0.045354
0.086160
0.127244
0.168557
0.210041
0.251655
0.293380
0.335196
0.377085
0.419037
0.461051
0.503126
0.545251
0.587418
0.629626
0.671970
0.710776
0.737321
0.747920
0.749514
0.749426
0.749336
0.749266
0.738299
-0.282063
-0.276718
-0.263431
-0.245848
-0.223546
-0.196230
-0.165035
-0.131237
-0.095725
-0.058898
-0.019717
0.021186
0.061312
0.100898
0.140917
0.181326
0.222050
0.263027
0.304213
0.345562
0.387036
0.428616
0.470297
0.512068
0.553910
0.595811
0.637685
0.674438
0.697367
0.705218
0.705916
0.705789
0.705679
0.705587
0.705516
0.705487
-0.239128
-0.234417
-0.222498
-0.206828
-0.187499
-0.163665
-0.135674
-0.104527
-0.071245
-0.035799
0.003210
0.042508
0.080219
0.118538
0.157411
0.196782
0.236569
0.276721
0.317183
0.357897
0.398811
0.439898
0.481145
0.522527
0.564013
0.604672
0.638139
0.656938
0.662292
0.662335
0.662175
0.662042
0.661931
0.661839
0.661767
0.661737
-0.195949
-0.191865
-0.181089
-0.166651
-0.149406
-0.128369
-0.103368
-0.074808
-0.043062
-0.007778
0.029537
0.065934
0.102006
0.138910
0.176533
0.214775
0.253527
0.292747
0.332370
0.372314
0.412535
0.453008
0.493711
0.534603
0.573098
0.601905
0.615838
0.618930
0.618782
0.618590
0.618429
0.618295
0.618183
0.618090
0.618017
0.617987
-0.152564
-0.149105
-0.139377
-0.125835
-0.110086
-0.091127
-0.068544
-0.042149
-0.011286
0.022774
0.057210
0.091281
0.126088
0.161699
0.198064
0.235105
0.272777
0.311022
0.349726
0.388803
0.428237
0.468006
0.508116
0.542966
0.565407
0.574407
0.575532
0.575269
0.575037
0.574844
0.574683
0.574548
0.574435
0.574341
0.574268
0.574237
-0.109027
-0.106172
-0.097456
-0.084630
-0.070027
-0.052639
-0.031244
-0.005679
0.023536
0.054305
0.085887
0.118461
0.152001
0.186413
0.221584
0.257511
0.294170
0.331412
0.369110
0.407344
0.446031
0.483029
0.512090
0.527978
0.532353
0.532132
0.531802
0.531524
0.531292
0.531098
0.530936
0.530800
0.530686
0.530592
0.530518
0.530487
-0.065442
-0.063120
-0.055457
-0.043242
-0.028668
-0.011573
0.009061
0.032867
0.058923
0.086642
0.116117
0.147184
0.179461
0.212681
0.246779
0.281738
0.317401
0.353596
0.390338
0.427534
0.458914
0.479226
0.488143
0.489223
0.488780
0.488389
0.488058
0.487779
0.487546
0.487351
0.487188
0.487052
0.486937
0.486842
0.486768
0.486738
-0.020263
-0.018303
-0.011537
0.000004
0.014484
0.030847
0.049609
0.070804
0.094359
0.120211
0.147970
0.177482
0.208379
0.240422
0.273518
0.307488
0.342096
0.377252
0.408863
0.431876
0.443913
0.446573
0.446029
0.445496
0.445037
0.444645
0.444313
0.444034
0.443799
0.443604
0.443441
0.443304
0.443189
0.443093
0.443019
0.442988
0.025436
0.027092
0.032954
0.043513
0.057043
0.072006
0.088990
0.108597
0.130690
0.154999
0.181248
0.209230
0.238739
0.269630
0.301647
0.334502
0.364480
0.386631
0.399893
0.404179
0.403610
0.402904
0.402287
0.401753
0.401293
0.400900
0.400567
0.400287
0.400052
0.399856
0.399693
0.399555
0.399440
0.399344
0.399269
0.399238
0.069596
0.071021
0.076075
0.085605
0.098387
0.112812
0.128950
0.147263
0.167946
0.190873
0.215740
0.242298
0.270465
0.300127
0.326523
0.345650
0.358033
0.362290
0.361584
0.360675
0.359871
0.359163
0.358545
0.358009
0.357548
0.357155
0.356821
0.356540
0.356305
0.356108
0.355944
0.355806
0.355690
0.355594
0.355519
0.355488
0.113312
0.114646
0.119247
0.127957
0.139996
0.153865
0.169301
0.186605
0.206039
0.227647
0.251225
0.275305
0.294550
0.308987
0.318903
0.321201
0.320009
0.318870
0.317848
0.316937
0.316130
0.315421
0.314801
0.314265
0.313803
0.313408
0.313074
0.312793
0.312557
0.312360
0.312195
0.312057
0.311941
0.311845
0.311769
0.311738
0.157046
0.158299
0.162530
0.170513
0.181812
0.195112
0.209939
0.226431
0.242898
0.255858
0.266539
0.276747
0.281350
0.280451
0.278932
0.277542
0.276278
0.275136
0.274111
0.273198
0.272389
0.271678
0.271057
0.270519
0.270057
0.269661
0.269327
0.269045
0.268809
0.268611
0.268446
0.268308
0.268192
0.268095
0.268020
0.267988
0.200788
0.201969
0.205826
0.210735
0.215758
0.221668
0.228506
0.236014
0.242178
0.243757
0.242045
0.240185
0.238392
0.236731
0.235208
0.233814
0.232546
0.231401
0.230374
0.229458
0.228647
0.227935
0.227313
0.226774
0.226310
0.225914
0.225579
0.225296
0.225060
0.224862
0.224697
0.224559
0.224442
0.224345
0.224270
0.224238
0.205062
0.205560
0.207142
0.207836
0.206871
0.205677
0.204825
0.203727
0.201975
0.200177
0.198336
0.196475
0.194678
0.193012
0.191484
0.190086
0.188814
0.187666
0.186636
0.185718
0.184905
0.184191
0.183567
0.183027
0.182563
0.182166
0.181831
0.181548
0.181311
0.181113
0.180948
0.180809
0.180692
0.180595
0.180520
0.180488
0.165584
0.165433
0.164949
0.164165
0.163128
0.161933
0.161091
0.160009
0.158260
0.156465
0.154627
0.152766
0.150964
0.149292
0.147759
0.146357
0.145082
0.143930
0.142897
0.141977
0.141162
0.140447
0.139822
0.139281
0.138815
0.138418
0.138082
0.137799
0.137562
0.137364
0.137198
0.137059
0.136943
0.136846
0.136770
0.136738
0.121829
0.121679
0.121199
0.120421
0.119389
0.118193
0.117363
0.116295
0.114546
0.112754
0.110918
0.109056
0.107250
0.105573
0.104035
0.102629
0.101350
0.100195
0.099159
0.098236
0.097420
0.096702
0.096076
0.095534
0.095068
0.094670
0.094333
0.094050
0.093813
0.093614
0.093449
0.093310
0.093193
0.093096
0.093020
0.092988
0.078077
0.077928
0.077452
0.076680
0.075653
0.074455
0.073648
0.072607
0.070855
0.069060
0.067221
0.065355
0.063543
0.061858
0.060313
0.058901
0.057616
0.056457
0.055417
0.054492
0.053673
0.052954
0.052326
0.051783
0.051317
0.050918
0.050581
0.050298
0.050060
0.049862
0.049697
0.049558
0.049441
0.049344
0.049269
0.049237
0.034329
0.034181
0.033708
0.032942
0.031919
0.030710
0.029626
0.028360
0.026694
0.024986
0.023225
0.021418
0.019656
0.018025
0.016528
0.015159
0.013913
0.012785
0.011772
0.010867
0.010064
0.009356
0.008736
0.008196
0.007729
0.007329
0.006987
0.006696
0.006451
0.006243
0.006066
0.005915
0.005785
0.005677
0.005597
0.005565
-0.010503
-0.010642
-0.011085
-0.011803
-0.012761
-0.013906
-0.015192
-0.016582
-0.018032
-0.019533
-0.021107
-0.022757
-0.024387
-0.025906
-0.027310
-0.028604
-0.029795
-0.030884
-0.031870
-0.032754
-0.033541
-0.034238
-0.034851
-0.035388
-0.035854
-0.036258
-0.036605
-0.036902
-0.037157
-0.037375
-0.037563
-0.037726
-0.037869
-0.037989
-0.038074
-0.038106
-0.055302
-0.055433
-0.055846
-0.056515
-0.057409
-0.058479
-0.059676
-0.060951
-0.062278
-0.063662
-0.065133
-0.066692
-0.068249
-0.069719
-0.071085
-0.072355
-0.073534
-0.074621
-0.075610
-0.076495
-0.077284
-0.077983
-0.078597
-0.079135
-0.079602
-0.080006
-0.080353
-0.080651
-0.080906
-0.081124
-0.081313
-0.081476
-0.081619
-0.081739
-0.081824
-0.081856
-0.099020
-0.099150
-0.099560
-0.100225
-0.101115
-0.102181
-0.103380
-0.104660
-0.105987
-0.107373
-0.108844
-0.110403
-0.111965
-0.113441
-0.114812
-0.116086
-0.117268
-0.118358
-0.119349
-0.120237
-0.121028
-0.121727
-0.122343
-0.122882
-0.123350
-0.123754
-0.124102
-0.124400
-0.124655
-0.124874
-0.125062
-0.125226
-0.125369
-0.125489
-0.125574
-0.114668
</DataArray>
<DataArray NumberOfComponents="1" format="ascii" type ="Float32" Name="u">
0.000201
0.000240
0.000275
0.000316
0.000373
0.000468
0.000647
0.001004
0.001725
0.003172
0.005953
0.010775
0.012456
0.012049
0.010829
0.009424
0.008069
0.006845
0.005777
0.004865
0.004098
0.003459
0.002930
0.002495
0.002136
0.001841
0.001599
0.001402
0.001243
0.001116
0.001019
0.000947
0.000899
0.000871
0.000860
0.000860
0.000239
0.000276
0.000314
0.000371
0.000475
0.000664
0.001012
0.001661
0.002851
0.005037
0.009024
0.014331
0.014953
0.013883
0.012333
0.010749
0.009280
0.007969
0.006822
0.005834
0.004991
0.004279
0.003681
0.003182
0.002766
0.002421
0.002137
0.001903
0.001714
0.001562
0.001444
0.001355
0.001291
0.001249
0.001224
0.001224
0.000257
0.000310
0.000372
0.000483
0.000694
0.001073
0.001727
0.002887
0.004871
0.008163
0.013474
0.016969
0.016640
0.015137
0.013389
0.011705
0.010174
0.008817
0.007630
0.006600
0.005715
0.004959
0.004317
0.003775
0.003319
0.002939
0.002622
0.002360
0.002146
0.001975
0.001840
0.001737
0.001664
0.001616
0.001593
0.001593
0.000241
0.000359
0.000503
0.000740
0.001164
0.001892
0.003025
0.005029
0.008051
0.012747
0.017447
0.018553
0.017483
0.015745
0.013932
0.012239
0.010716
0.009369
0.008186
0.007154
0.006260
0.005489
0.004828
0.004265
0.003787
0.003384
0.003046
0.002765
0.002534
0.002348
0.002201
0.002090
0.002011
0.001962
0.001939
0.001939
0.000182
0.000474
0.000810
0.001285
0.002061
0.003394
0.005088
0.008403
0.012457
0.017196
0.019490
0.019096
0.017563
0.015746
0.013979
0.012361
0.010914
0.009630
0.008496
0.007500
0.006628
0.005870
0.005213
0.004648
0.004164
0.003752
0.003405
0.003114
0.002874
0.002679
0.002525
0.002408
0.002326
0.002276
0.002254
0.002254
0.000083
0.000745
0.001464
0.002314
0.003491
0.005951
0.008646
0.012488
0.016543
0.019323
0.019683
0.018589
0.016938
0.015216
0.013598
0.012131
0.010813
0.009636
0.008587
0.007656
0.006834
0.006110
0.005477
0.004927
0.004452
0.004044
0.003697
0.003405
0.003162
0.002965
0.002808
0.002689
0.002606
0.002555
0.002533
0.002533
-0.000002
0.001265
0.002624
0.004178
0.006114
0.009084
0.012460
0.015399
0.018047
0.019026
0.018564
0.017312
0.015804
0.014307
0.012912
0.011640
0.010486
0.009442
0.008500
0.007655
0.006899
0.006226
0.005632
0.005111
0.004656
0.004262
0.003925
0.003639
0.003400
0.003204
0.003049
0.002931
0.002848
0.002798
0.002776
0.002776
-0.000088
0.001784
0.003801
0.006112
0.008817
0.011201
0.014001
0.015930
0.017244
0.017453
0.016785
0.015671
0.014429
0.013207
0.012058
0.010992
0.010009
0.009107
0.008281
0.007530
0.006850
0.006239
0.005693
0.005210
0.004784
0.004413
0.004092
0.003818
0.003588
0.003399
0.003248
0.003134
0.003053
0.003004
0.002982
0.002982
-0.000119
0.002090
0.004424
0.006948
0.009569
0.011515
0.013496
0.014838
0.015534
0.015478
0.014873
0.013994
0.013031
0.012070
0.011147
0.010272
0.009450
0.008683
0.007971
0.007315
0.006715
0.006169
0.005677
0.005236
0.004846
0.004502
0.004203
0.003947
0.003730
0.003551
0.003407
0.003298
0.003221
0.003174
0.003153
0.003153
-0.000065
0.002201
0.004510
0.006827
0.008977
0.010723
0.012238
0.013227
0.013658
0.013562
0.013101
0.012450
0.011723
0.010979
0.010245
0.009534
0.008854
0.008209
0.007603
0.007037
0.006514
0.006034
0.005598
0.005204
0.004851
0.004539
0.004266
0.004029
0.003829
0.003663
0.003529
0.003427
0.003354
0.003310
0.003290
0.003290
-0.000041
0.002110
0.004240
0.006279
0.008101
0.009618
0.010826
0.011598
0.011925
0.011870
0.011551
0.011083
0.010540
0.009965
0.009383
0.008808
0.008248
0.007710
0.007199
0.006718
0.006268
0.005852
0.005470
0.005123
0.004810
0.004531
0.004286
0.004072
0.003890
0.003738
0.003616
0.003522
0.003456
0.003415
0.003396
0.003396
-0.000058
0.001910
0.003825
0.005611
0.007182
0.008485
0.009484
0.010126
0.010418
0.010421
0.010218
0.009885
0.009478
0.009033
0.008571
0.008106
0.007649
0.007204
0.006778
0.006373
0.005991
0.005636
0.005307
0.005006
0.004733
0.004488
0.004271
0.004082
0.003920
0.003784
0.003674
0.003589
0.003529
0.003492
0.003475
0.003475
-0.000085
0.001678
0.003376
0.004940
0.006306
0.007433
0.008288
0.008852
0.009138
0.009192
0.009073
0.008837
0.008528
0.008180
0.007812
0.007439
0.007068
0.006705
0.006354
0.006018
0.005700
0.005401
0.005123
0.004866
0.004632
0.004421
0.004233
0.004068
0.003926
0.003807
0.003710
0.003635
0.003582
0.003548
0.003533
0.003533
-0.000110
0.001449
0.002945
0.004317
0.005514
0.006503
0.007260
0.007778
0.008069
0.008163
0.008100
0.007926
0.007684
0.007407
0.007115
0.006817
0.006521
0.006230
0.005947
0.005675
0.005415
0.005169
0.004938
0.004724
0.004528
0.004349
0.004189
0.004048
0.003926
0.003823
0.003740
0.003675
0.003628
0.003600
0.003586
0.003586
-0.000129
0.001241
0.002557
0.003767
0.004829
0.005715
0.006410
0.006907
0.007211
0.007340
0.007312
0.007163
0.006958
0.006733
0.006502
0.006272
0.006043
0.005818
0.005597
0.005383
0.005176
0.004979
0.004792
0.004618
0.004456
0.004308
0.004175
0.004057
0.003954
0.003867
0.003796
0.003741
0.003701
0.003677
0.003665
0.003665
-0.000141
0.001066
0.002230
0.003308
0.004267
0.005085
0.005749
0.006253
0.006594
0.006769
0.006770
0.006594
0.006393
0.006209
0.006036
0.005870
0.005706
0.005542
0.005379
0.005217
0.005060
0.004906
0.004760
0.004621
0.004491
0.004371
0.004261
0.004164
0.004078
0.004005
0.003946
0.003899
0.003866
0.003845
0.003834
0.003834
-0.000142
0.000929
0.001969
0.002943
0.003826
0.004602
0.005261
0.005800
0.006216
0.006491
0.006584
0.006296
0.006078
0.005944
0.005840
0.005743
0.005643
0.005538
0.005428
0.005315
0.005200
0.005086
0.004973
0.004864
0.004760
0.004663
0.004573
0.004492
0.004420
0.004359
0.004308
0.004268
0.004240
0.004222
0.004213
0.004213
-0.000121
0.000843
0.001783
0.002671
0.003486
0.004216
0.004852
0.005396
0.005847
0.006198
0.006411
0.006241
0.006156
0.006136
0.006124
0.006101
0.006063
0.006010
0.005945
0.005871
0.005789
0.005703
0.005614
0.005526
0.005440
0.005357
0.005279
0.005208
0.005144
0.005089
0.005043
0.005007
0.004981
0.004965
0.004956
0.004956
-0.000072
0.000820
0.001687
0.002504
0.003247
0.003903