<VTKFile type="StructuredGrid" version="0.1" byte_order="LittleEndian">
<StructuredGrid WholeExtent="1 71 1 81 0 0">
<Piece Extent="1 36 1 21 0 0">
<PointData></PointData>
<CellData></CellData>
<Points>
<DataArray NumberOfComponents="3" format="ascii" type ="Float32" Name="mesh">
0.000000 0.000000 0.0
0.042857 0.000000 0.0
0.085714 0.000000 0.0
0.128571 0.000000 0.0
0.171429 0.000000 0.0
0.214286 0.000000 0.0
0.257143 0.000000 0.0
0.300000 0.000000 0.0
0.342857 0.000000 0.0
0.385714 0.000000 0.0
0.428571 0.000000 0.0
0.471429 0.000000 0.0
0.514286 0.000000 0.0
0.557143 0.000000 0.0
0.600000 0.000000 0.0
0.642857 0.000000 0.0
0.685714 0.000000 0.0
0.728571 0.000000 0.0
0.771429 0.000000 0.0
0.814286 0.000000 0.0
0.857143 0.000000 0.0
0.900000 0.000000 0.0
0.942857 0.000000 0.0
0.985714 0.000000 0.0
1.028571 0.000000 0.0
1.071429 0.000000 0.0
1.114286 0.000000 0.0
1.157143 0.000000 0.0
1.200000 0.000000 0.0
1.242857 0.000000 0.0
1.285714 0.000000 0.0
1.328571 0.000000 0.0
1.371429 0.000000 0.0
1.414286 0.000000 0.0
1.457143 0.000000 0.0
1.500000 0.000000 0.0
0.000000 0.043750 0.0
0.042857 0.043750 0.0
0.085714 0.043750 0.0
0.128571 0.043750 0.0
0.171429 0.043750 0.0
0.214286 0.043750 0.0
0.257143 0.043750 0.0
0.300000 0.043750 0.0
0.342857 0.043750 0.0
0.385714 0.043750 0.0
0.428571 0.043750 0.0
0.471429 0.043750 0.0
0.514286 0.043750 0.0
0.557143 0.043750 0.0
0.600000 0.043750 0.0
0.642857 0.043750 0.0
0.685714 0.043750 0.0
0.728571 0.043750 0.0
0.771429 0.043750 0.0
0.814286 0.043750 0.0
0.857143 0.043750 0.0
0.900000 0.043750 0.0
0.942857 0.043750 0.0
0.985714 0.043750 0.0
1.028571 0.043750 0.0
1.071429 0.043750 0.0
1.114286 0.043750 0.0
1.157143 0.043750 0.0
1.200000 0.043750 0.0
1.242857 0.043750 0.0
1.285714 0.043750 0.0
1.328571 0.043750 0.0
1.371429 0.043750 0.0
1.414286 0.043750 0.0
1.457143 0.043750 0.0
1.500000 0.043750 0.0
0.000000 0.087500 0.0
0.042857 0.087500 0.0
0.085714 0.087500 0.0
0.128571 0.087500 0.0
0.171429 0.087500 0.0
0.214286 0.087500 0.0
0.257143 0.087500 0.0
0.300000 0.087500 0.0
0.342857 0.087500 0.0
0.385714 0.087500 0.0
0.428571 0.087500 0.0
0.471429 0.087500 0.0
0.514286 0.087500 0.0
0.557143 0.087500 0.0
0.600000 0.087500 0.0
0.642857 0.087500 0.0
0.685714 0.087500 0.0
0.728571 0.087500 0.0
0.771429 0.087500 0.0
0.814286 0.087500 0.0
0.857143 0.087500 0.0
0.900000 0.087500 0.0
0.942857 0.087500 0.0
0.985714 0.087500 0.0
1.028571 0.087500 0.0
1.071429 0.087500 0.0
1.114286 0.087500 0.0
1.157143 0.087500 0.0
1.200000 0.087500 0.0
1.242857 0.087500 0.0
1.285714 0.087500 0.0
1.328571 0.087500 0.0
1.371429 0.087500 0.0
1.414286 0.087500 0.0
1.457143 0.087500 0.0
1.500000 0.087500 0.0
0.000000 0.131250 0.0
0.042857 0.131250 0.0
0.085714 0.131250 0.0
0.128571 0.131250 0.0
0.171429 0.131250 0.0
0.214286 0.131250 0.0
0.257143 0.131250 0.0
0.300000 0.131250 0.0
0.342857 0.131250 0.0
0.385714 0.131250 0.0
0.428571 0.131250 0.0
0.471429 0.131250 0.0
0.514286 0.131250 0.0
0.557143 0.131250 0.0
0.600000 0.131250 0.0
0.642857 0.131250 0.0
0.685714 0.131250 0.0
0.728571 0.131250 0.0
0.771429 0.131250 0.0
0.814286 0.131250 0.0
0.857143 0.131250 0.0
0.900000 0.131250 0.0
0.942857 0.131250 0.0
0.985714 0.131250 0.0
1.028571 0.131250 0.0
1.071429 0.131250 0.0
1.114286 0.131250 0.0
1.157143 0.131250 0.0
1.200000 0.131250 0.0
1.242857 0.131250 0.0
1.285714 0.131250 0.0
1.328571 0.131250 0.0
1.371429 0.131250 0.0
1.414286 0.131250 0.0
1.457143 0.131250 0.0
1.500000 0.131250 0.0
0.000000 0.175000 0.0
0.042857 0.175000 0.0
0.085714 0.175000 0.0
0.128571 0.175000 0.0
0.171429 0.175000 0.0
0.214286 0.175000 0.0
0.257143 0.175000 0.0
0.300000 0.175000 0.0
0.342857 0.175000 0.0
0.385714 0.175000 0.0
0.428571 0.175000 0.0
0.471429 0.175000 0.0
0.514286 0.175000 0.0
0.557143 0.175000 0.0
0.600000 0.175000 0.0
0.642857 0.175000 0.0
0.685714 0.175000 0.0
0.728571 0.175000 0.0
0.771429 0.175000 0.0
0.814286 0.175000 0.0
0.857143 0.175000 0.0
0.900000 0.175000 0.0
0.942857 0.175000 0.0
0.985714 0.175000 0.0
1.028571 0.175000 0.0
1.071429 0.175000 0.0
1.114286 0.175000 0.0
1.157143 0.175000 0.0
1.200000 0.175000 0.0
1.242857 0.175000 0.0
1.285714 0.175000 0.0
1.328571 0.175000 0.0
1.371429 0.175000 0.0
1.414286 0.175000 0.0
1.457143 0.175000 0.0
1.500000 0.175000 0.0
0.000000 0.218750 0.0
0.042857 0.218750 0.0
0.085714 0.218750 0.0
0.128571 0.218750 0.0
0.171429 0.218750 0.0
0.214286 0.218750 0.0
0.257143 0.218750 0.0
0.300000 0.218750 0.0
0.342857 0.218750 0.0
0.385714 0.218750 0.0
0.428571 0.218750 0.0
0.471429 0.218750 0.0
0.514286 0.218750 0.0
0.557143 0.218750 0.0
0.600000 0.218750 0.0
0.642857 0.218750 0.0
0.685714 0.218750 0.0
0.728571 0.218750 0.0
0.771429 0.218750 0.0
0.814286 0.218750 0.0
0.857143 0.218750 0.0
0.900000 0.218750 0.0
0.942857 0.218750 0.0
0.985714 0.218750 0.0
1.028571 0.218750 0.0
1.071429 0.218750 0.0
1.114286 0.218750 0.0
1.157143 0.218750 0.0
1.200000 0.218750 0.0
1.242857 0.218750 0.0
1.285714 0.218750 0.0
1.328571 0.218750 0.0
1.371429 0.218750 0.0
1.414286 0.218750 0.0
1.457143 0.218750 0.0
1.500000 0.218750 0.0
0.000000 0.262500 0.0
0.042857 0.262500 0.0
0.085714 0.262500 0.0
0.128571 0.262500 0.0
0.171429 0.262500 0.0
0.214286 0.262500 0.0
0.257143 0.262500 0.0
0.300000 0.262500 0.0
0.342857 0.262500 0.0
0.385714 0.262500 0.0
0.428571 0.262500 0.0
0.471429 0.262500 0.0
0.514286 0.262500 0.0
0.557143 0.262500 0.0
0.600000 0.262500 0.0
0.642857 0.262500 0.0
0.685714 0.262500 0.0
0.728571 0.262500 0.0
0.771429 0.262500 0.0
0.814286 0.262500 0.0
0.857143 0.262500 0.0
0.900000 0.262500 0.0
0.942857 0.262500 0.0
0.985714 0.262500 0.0
1.028571 0.262500 0.0
1.071429 0.262500 0.0
1.114286 0.262500 0.0
1.157143 0.262500 0.0
1.200000 0.262500 0.0
1.242857 0.262500 0.0
1.285714 0.262500 0.0
1.328571 0.262500 0.0
1.371429 0.262500 0.0
1.414286 0.262500 0.0
1.457143 0.262500 0.0
1.500000 0.262500 0.0
0.000000 0.306250 0.0
0.042857 0.306250 0.0
0.085714 0.306250 0.0
0.128571 0.306250 0.0
0.171429 0.306250 0.0
0.214286 0.306250 0.0
0.257143 0.306250 0.0
0.300000 0.306250 0.0
0.342857 0.306250 0.0
0.385714 0.306250 0.0
0.428571 0.306250 0.0
0.471429 0.306250 0.0
0.514286 0.306250 0.0
0.557143 0.306250 0.0
0.600000 0.306250 0.0
0.642857 0.306250 0.0
0.685714 0.306250 0.0
0.728571 0.306250 0.0
0.771429 0.306250 0.0
0.814286 0.306250 0.0
0.857143 0.306250 0.0
0.900000 0.306250 0.0
0.942857 0.306250 0.0
0.985714 0.306250 0.0
1.028571 0.306250 0.0
1.071429 0.306250 0.0
1.114286 0.306250 0.0
1.157143 0.306250 0.0
1.200000 0.306250 0.0
1.242857 0.306250 0.0
1.285714 0.306250 0.0
1.328571 0.306250 0.0
1.371429 0.306250 0.0
1.414286 0.306250 0.0
1.457143 0.306250 0.0
1.500000 0.306250 0.0
0.000000 0.350000 0.0
0.042857 0.350000 0.0
0.085714 0.350000 0.0
0.128571 0.350000 0.0
0.171429 0.350000 0.0
0.214286 0.350000 0.0
0.257143 0.350000 0.0
0.300000 0.350000 0.0
0.342857 0.350000 0.0
0.385714 0.350000 0.0
0.428571 0.350000 0.0
0.471429 0.350000 0.0
0.514286 0.350000 0.0
0.557143 0.350000 0.0
0.600000 0.350000 0.0
0.642857 0.350000 0.0
0.685714 0.350000 0.0
0.728571 0.350000 0.0
0.771429 0.350000 0.0
0.814286 0.350000 0.0
0.857143 0.350000 0.0
0.900000 0.350000 0.0
0.942857 0.350000 0.0
0.985714 0.350000 0.0
1.028571 0.350000 0.0
1.071429 0.350000 0.0
1.114286 0.350000 0.0
1.157143 0.350000 0.0
1.200000 0.350000 0.0
1.242857 0.350000 0.0
1.285714 0.350000 0.0
1.328571 0.350000 0.0
1.371429 0.350000 0.0
1.414286 0.350000 0.0
1.457143 0.350000 0.0
1.500000 0.350000 0.0
0.000000 0.393750 0.0
0.042857 0.393750 0.0
0.085714 0.393750 0.0
0.128571 0.393750 0.0
0.171429 0.393750 0.0
0.214286 0.393750 0.0
0.257143 0.393750 0.0
0.300000 0.393750 0.0
0.342857 0.393750 0.0
0.385714 0.393750 0.0
0.428571 0.393750 0.0
0.471429 0.393750 0.0
0.514286 0.393750 0.0
0.557143 0.393750 0.0
0.600000 0.393750 0.0
0.642857 0.393750 0.0
0.685714 0.393750 0.0
0.728571 0.393750 0.0
0.771429 0.393750 0.0
0.814286 0.393750 0.0
0.857143 0.393750 0.0
0.900000 0.393750 0.0
0.942857 0.393750 0.0
0.985714 0.393750 0.0
1.028571 0.393750 0.0
1.071429 0.393750 0.0
1.114286 0.393750 0.0
1.157143 0.393750 0.0
1.200000 0.393750 0.0
1.242857 0.393750 0.0
1.285714 0.393750 0.0
1.328571 0.393750 0.0
1.371429 0.393750 0.0
1.414286 0.393750 0.0
1.457143 0.393750 0.0
1.500000 0.393750 0.0
0.000000 0.437500 0.0
0.042857 0.437500 0.0
0.085714 0.437500 0.0
0.128571 0.437500 0.0
0.171429 0.437500 0.0
0.214286 0.437500 0.0
0.257143 0.437500 0.0
0.300000 0.437500 0.0
0.342857 0.437500 0.0
0.385714 0.437500 0.0
0.428571 0.437500 0.0
0.471429 0.437500 0.0
0.514286 0.437500 0.0
0.557143 0.437500 0.0
0.600000 0.437500 0.0
0.642857 0.437500 0.0
0.685714 0.437500 0.0
0.728571 0.437500 0.0
0.771429 0.437500 0.0
0.814286 0.437500 0.0
0.857143 0.437500 0.0
0.900000 0.437500 0.0
0.942857 0.437500 0.0
0.985714 0.437500 0.0
1.028571 0.437500 0.0
1.071429 0.437500 0.0
1.114286 0.437500 0.0
1.157143 0.437500 0.0
1.200000 0.437500 0.0
1.242857 0.437500 0.0
1.285714 0.437500 0.0
1.328571 0.437500 0.0
1.371429 0.437500 0.0
1.414286 0.437500 0.0
1.457143 0.437500 0.0
1.500000 0.437500 0.0
0.000000 0.481250 0.0
0.042857 0.481250 0.0
0.085714 0.481250 0.0
0.128571 0.481250 0.0
0.171429 0.481250 0.0
0.214286 0.481250 0.0
0.257143 0.481250 0.0
0.300000 0.481250 0.0
0.342857 0.481250 0.0
0.385714 0.481250 0.0
0.428571 0.481250 0.0
0.471429 0.481250 0.0
0.514286 0.481250 0.0
0.557143 0.481250 0.0
0.600000 0.481250 0.0
0.642857 0.481250 0.0
0.685714 0.481250 0.0
0.728571 0.481250 0.0
0.771429 0.481250 0.0
0.814286 0.481250 0.0
0.857143 0.481250 0.0
0.900000 0.481250 0.0
0.942857 0.481250 0.0
0.985714 0.481250 0.0
1.028571 0.481250 0.0
1.071429 0.481250 0.0
1.114286 0.481250 0.0
1.157143 0.481250 0.0
1.200000 0.481250 0.0
1.242857 0.481250 0.0
1.285714 0.481250 0.0
1.328571 0.481250 0.0
1.371429 0.481250 0.0
1.414286 0.481250 0.0
1.457143 0.481250 0.0
1.500000 0.481250 0.0
0.000000 0.525000 0.0
0.042857 0.525000 0.0
0.085714 0.525000 0.0
0.128571 0.525000 0.0
0.171429 0.525000 0.0
0.214286 0.525000 0.0
0.257143 0.525000 0.0
0.300000 0.525000 0.0
0.342857 0.525000 0.0
0.385714 0.525000 0.0
0.428571 0.525000 0.0
0.471429 0.525000 0.0
0.514286 0.525000 0.0
0.557143 0.525000 0.0
0.600000 0.525000 0.0
0.642857 0.525000 0.0
0.685714 0.525000 0.0
0.728571 0.525000 0.0
0.771429 0.525000 0.0
0.814286 0.525000 0.0
0.857143 0.525000 0.0
0.900000 0.525000 0.0
0.942857 0.525000 0.0
0.985714 0.525000 0.0
1.028571 0.525000 0.0
1.071429 0.525000 0.0
1.114286 0.525000 0.0
1.157143 0.525000 0.0
1.200000 0.525000 0.0
1.242857 0.525000 0.0
1.285714 0.525000 0.0
1.328571 0.525000 0.0
1.371429 0.525000 0.0
1.414286 0.525000 0.0
1.457143 0.525000 0.0
1.500000 0.525000 0.0
0.000000 0.568750 0.0
0.042857 0.568750 0.0
0.085714 0.568750 0.0
0.128571 0.568750 0.0
0.171429 0.568750 0.0
0.214286 0.568750 0.0
0.257143 0.568750 0.0
0.300000 0.568750 0.0
0.342857 0.568750 0.0
0.385714 0.568750 0.0
0.428571 0.568750 0.0
0.471429 0.568750 0.0
0.514286 0.568750 0.0
0.557143 0.568750 0.0
0.600000 0.568750 0.0
0.642857 0.568750 0.0
0.685714 0.568750 0.0
0.728571 0.568750 0.0
0.771429 0.568750 0.0
0.814286 0.568750 0.0
0.857143 0.568750 0.0
0.900000 0.568750 0.0
0.942857 0.568750 0.0
0.985714 0.568750 0.0
1.028571 0.568750 0.0
1.071429 0.568750 0.0
1.114286 0.568750 0.0
1.157143 0.568750 0.0
1.200000 0.568750 0.0
1.242857 0.568750 0.0
1.285714 0.568750 0.0
1.328571 0.568750 0.0
1.371429 0.568750 0.0
1.414286 0.568750 0.0
1.457143 0.568750 0.0
1.500000 0.568750 0.0
0.000000 0.612500 0.0
0.042857 0.612500 0.0
0.085714 0.612500 0.0
0.128571 0.612500 0.0
0.171429 0.612500 0.0
0.214286 0.612500 0.0
0.257143 0.612500 0.0
0.300000 0.612500 0.0
0.342857 0.612500 0.0
0.385714 0.612500 0.0
0.428571 0.612500 0.0
0.471429 0.612500 0.0
0.514286 0.612500 0.0
0.557143 0.612500 0.0
0.600000 0.612500 0.0
0.642857 0.612500 0.0
0.685714 0.612500 0.0
0.728571 0.612500 0.0
0.771429 0.612500 0.0
0.814286 0.612500 0.0
0.857143 0.612500 0.0
0.900000 0.612500 0.0
0.942857 0.612500 0.0
0.985714 0.612500 0.0
1.028571 0.612500 0.0
1.071429 0.612500 0.0
1.114286 0.612500 0.0
1.157143 0.612500 0.0
1.200000 0.612500 0.0
1.242857 0.612500 0.0
1.285714 0.612500 0.0
1.328571 0.612500 0.0
1.371429 0.612500 0.0
1.414286 0.612500 0.0
1.457143 0.612500 0.0
1.500000 0.612500 0.0
0.000000 0.656250 0.0
0.042857 0.656250 0.0
0.085714 0.656250 0.0
0.128571 0.656250 0.0
0.171429 0.656250 0.0
0.214286 0.656250 0.0
0.257143 0.656250 0.0
0.300000 0.656250 0.0
0.342857 0.656250 0.0
0.385714 0.656250 0.0
0.428571 0.656250 0.0
0.471429 0.656250 0.0
0.514286 0.656250 0.0
0.557143 0.656250 0.0
0.600000 0.656250 0.0
0.642857 0.656250 0.0
0.685714 0.656250 0.0
0.728571 0.656250 0.0
0.771429 0.656250 0.0
0.814286 0.656250 0.0
0.857143 0.656250 0.0
0.900000 0.656250 0.0
0.942857 0.656250 0.0
0.985714 0.656250 0.0
1.028571 0.656250 0.0
1.071429 0.656250 0.0
1.114286 0.656250 0.0
1.157143 0.656250 0.0
1.200000 0.656250 0.0
1.242857 0.656250 0.0
1.285714 0.656250 0.0
1.328571 0.656250 0.0
1.371429 0.656250 0.0
1.414286 0.656250 0.0
1.457143 0.656250 0.0
1.500000 0.656250 0.0
0.000000 0.700000 0.0
0.042857 0.700000 0.0
0.085714 0.700000 0.0
0.128571 0.700000 0.0
0.171429 0.700000 0.0
0.214286 0.700000 0.0
0.257143 0.700000 0.0
0.300000 0.700000 0.0
0.342857 0.700000 0.0
0.385714 0.700000 0.0
0.428571 0.700000 0.0
0.471429 0.700000 0.0
0.514286 0.700000 0.0
0.557143 0.700000 0.0
0.600000 0.700000 0.0
0.642857 0.700000 0.0
0.685714 0.700000 0.0
0.728571 0.700000 0.0
0.771429 0.700000 0.0
0.814286 0.700000 0.0
0.857143 0.700000 0.0
0.900000 0.700000 0.0
0.942857 0.700000 0.0
0.985714 0.700000 0.0
1.028571 0.700000 0.0
1.071429 0.700000 0.0
1.114286 0.700000 0.0
1.157143 0.700000 0.0
1.200000 0.700000 0.0
1.242857 0.700000 0.0
1.285714 0.700000 0.0
1.328571 0.700000 0.0
1.371429 0.700000 0.0
1.414286 0.700000 0.0
1.457143 0.700000 0.0
1.500000 0.700000 0.0
0.000000 0.743750 0.0
0.042857 0.743750 0.0
0.085714 0.743750 0.0
0.128571 0.743750 0.0
0.171429 0.743750 0.0
0.214286 0.743750 0.0
0.257143 0.743750 0.0
0.300000 0.743750 0.0
0.342857 0.743750 0.0
0.385714 0.743750 0.0
0.428571 0.743750 0.0
0.471429 0.743750 0.0
0.514286 0.743750 0.0
0.557143 0.743750 0.0
0.600000 0.743750 0.0
0.642857 0.743750 0.0
0.685714 0.743750 0.0
0.728571 0.743750 0.0
0.771429 0.743750 0.0
0.814286 0.743750 0.0
0.857143 0.743750 0.0
0.900000 0.743750 0.0
0.942857 0.743750 0.0
0.985714 0.743750 0.0
1.028571 0.743750 0.0
1.071429 0.743750 0.0
1.114286 0.743750 0.0
1.157143 0.743750 0.0
1.200000 0.743750 0.0
1.242857 0.743750 0.0
1.285714 0.743750 0.0
1.328571 0.743750 0.0
1.371429 0.743750 0.0
1.414286 0.743750 0.0
1.457143 0.743750 0.0
1.500000 0.743750 0.0
0.000000 0.787500 0.0
0.042857 0.787500 0.0
0.085714 0.787500 0.0
0.128571 0.787500 0.0
0.171429 0.787500 0.0
0.214286 0.787500 0.0
0.257143 0.787500 0.0
0.300000 0.787500 0.0
0.342857 0.787500 0.0
0.385714 0.787500 0.0
0.428571 0.787500 0.0
0.471429 0.787500 0.0
0.514286 0.787500 0.0
0.557143 0.787500 0.0
0.600000 0.787500 0.0
0.642857 0.787500 0.0
0.685714 0.787500 0.0
0.728571 0.787500 0.0
0.771429 0.787500 0.0
0.814286 0.787500 0.0
0.857143 0.787500 0.0
0.900000 0.787500 0.0
0.942857 0.787500 0.0
0.985714 0.787500 0.0
1.028571 0.787500 0.0
1.071429 0.787500 0.0
1.114286 0.787500 0.0
1.157143 0.787500 0.0
1.200000 0.787500 0.0
1.242857 0.787500 0.0
1.285714 0.787500 0.0
1.328571 0.787500 0.0
1.371429 0.787500 0.0
1.414286 0.787500 0.0
1.457143 0.787500 0.0
1.500000 0.787500 0.0
0.000000 0.831250 0.0
0.042857 0.831250 0.0
0.085714 0.831250 0.0
0.128571 0.831250 0.0
0.171429 0.831250 0.0
0.214286 0.831250 0.0
0.257143 0.831250 0.0
0.300000 0.831250 0.0
0.342857 0.831250 0.0
0.385714 0.831250 0.0
0.428571 0.831250 0.0
0.471429 0.831250 0.0
0.514286 0.831250 0.0
0.557143 0.831250 0.0
0.600000 0.831250 0.0
0.642857 0.831250 0.0
0.685714 0.831250 0.0
0.728571 0.831250 0.0
0.771429 0.831250 0.0
0.814286 0.831250 0.0
0.857143 0.831250 0.0
0.900000 0.831250 0.0
0.942857 0.831250 0.0
0.985714 0.831250 0.0
1.028571 0.831250 0.0
1.071429 0.831250 0.0
1.114286 0.831250 0.0
1.157143 0.831250 0.0
1.200000 0.831250 0.0
1.242857 0.831250 0.0
1.285714 0.831250 0.0
1.328571 0.831250 0.0
1.371429 0.831250 0.0
1.414286 0.831250 0.0
1.457143 0.831250 0.0
1.500000 0.831250 0.0
0.000000 0.875000 0.0
0.042857 0.875000 0.0
0.085714 0.875000 0.0
0.128571 0.875000 0.0
0.171429 0.875000 0.0
0.214286 0.875000 0.0
0.257143 0.875000 0.0
0.300000 0.875000 0.0
0.342857 0.875000 0.0
0.385714 0.875000 0.0
0.428571 0.875000 0.0
0.471429 0.875000 0.0
0.514286 0.875000 0.0
0.557143 0.875000 0.0
0.600000 0.875000 0.0
0.642857 0.875000 0.0
0.685714 0.875000 0.0
0.728571 0.875000 0.0
0.771429 0.875000 0.0
0.814286 0.875000 0.0
0.857143 0.875000 0.0
0.900000 0.875000 0.0
0.942857 0.875000 0.0
0.985714 0.875000 0.0
1.028571 0.875000 0.0
1.071429 0.875000 0.0
1.114286 0.875000 0.0
1.157143 0.875000 0.0
1.200000 0.875000 0.0
1.242857 0.875000 0.0
1.285714 0.875000 0.0
1.328571 0.875000 0.0
1.371429 0.875000 0.0
1.414286 0.875000 0.0
1.457143 0.875000 0.0
1.500000 0.875000 0.0
</DataArray></Points>
<PointData>
<DataArray NumberOfComponents="1" format="ascii" type ="Float32" Name="phi">
1.640777
1.626165
1.597134
1.568478
1.540189
1.512381
1.485400
1.459260
1.433673
1.408561
1.383921
1.359783
1.336229
1.313435
1.291582
1.270665
1.250564
1.231212
1.212599
1.194762
1.177851
1.162165
1.147692
1.134176
1.121560
1.109871
1.099133
1.089338
1.080475
1.072546
1.065568
1.059618
1.054891
1.051613
1.049786
1.049271
1.625185
1.610440
1.581133
1.552195
1.523663
1.495740
1.468641
1.442250
1.416360
1.390930
1.365969
1.341534
1.317752
1.294822
1.272846
1.251734
1.231379
1.211746
1.192854
1.174782
1.157742
1.141937
1.127259
1.113516
1.100691
1.088827
1.077945
1.068026
1.059054
1.051025
1.043956
1.037923
1.033129
1.029804
1.027950
1.027427
1.594179
1.579157
1.549282
1.519794
1.490880
1.462736
1.435287
1.408337
1.381818
1.355736
1.330138
1.305152
1.281023
1.257865
1.235562
1.213979
1.193070
1.172856
1.153416
1.134947
1.117666
1.101543
1.086398
1.072175
1.058928
1.046725
1.035561
1.025397
1.016209
1.007985
1.000736
0.994540
0.989611
0.986189
0.984278
0.983739
1.563510
1.548200
1.517762
1.487852
1.458692
1.430215
1.402220
1.374630
1.347443
1.320699
1.294525
1.269194
1.244861
1.221378
1.198571
1.176394
1.154869
1.134069
1.114185
1.095442
1.077843
1.061229
1.045530
1.030796
1.017136
1.004606
0.993167
0.982766
0.973368
0.964955
0.957536
0.951185
0.946116
0.942581
0.940606
0.940051
1.533156
1.517584
1.486720
1.456547
1.427059
1.398038
1.369392
1.341119
1.313249
1.285911
1.259401
1.233896
1.209227
1.185197
1.161762
1.138938
1.116795
1.095524
1.075349
1.056278
1.038163
1.020937
1.004647
0.989408
0.975352
0.962503
0.950795
0.940165
0.930567
0.921974
0.914388
0.907878
0.902651
0.898984
0.896936
0.896363
1.503165
1.487439
1.456330
1.425843
1.395817
1.366137
1.336796
1.307822
1.279341
1.251668
1.224998
1.199146
1.173901
1.149218
1.125108
1.101638
1.079004
1.057429
1.036909
1.017299
0.998533
0.980658
0.963789
0.948098
0.933680
0.920509
0.908529
0.897667
0.887857
0.879068
0.871299
0.864612
0.859210
0.855396
0.853268
0.852675
1.473835
1.458003
1.426586
1.395581
1.364893
1.334509
1.304453
1.274851
1.246032
1.218207
1.191181
1.164731
1.138810
1.113428
1.088648
1.064673
1.041722
1.019778
0.998691
0.978401
0.958951
0.940467
0.923149
0.907099
0.892285
0.878732
0.866436
0.855296
0.845234
0.836218
0.828248
0.821375
0.815789
0.811818
0.809601
0.808986
1.445335
1.429288
1.397343
1.365681
1.334286
1.303178
1.272482
1.242537
1.213568
1.185378
1.157735
1.130589
1.103949
1.077875
1.052576
1.028270
1.004925
0.982384
0.960592
0.939594
0.919544
0.900644
0.882976
0.866476
0.851148
0.837145
0.824478
0.813011
0.802667
0.793410
0.785229
0.778164
0.772386
0.768247
0.765934
0.765296
1.417458
1.401102
1.368506
1.336141
1.304023
1.272273
1.241229
1.211129
1.181787
1.152962
1.124605
1.096720
1.069370
1.042766
1.017124
0.992396
0.968423
0.945152
0.922633
0.901049
0.880611
0.861349
0.843163
0.826034
0.810143
0.795681
0.782611
0.770791
0.760150
0.750642
0.742244
0.734980
0.729002
0.724683
0.722266
0.721604
1.390054
1.373362
1.340075
1.306999
1.274248
1.242145
1.210939
1.180457
1.150466
1.120910
1.091795
1.063185
1.035296
1.008336
0.982245
0.956860
0.932132
0.908114
0.885018
0.863060
0.842223
0.822369
0.803473
0.785680
0.769255
0.754336
0.740831
0.728637
0.717687
0.707920
0.699298
0.691825
0.685636
0.681127
0.678599
0.677910
1.363106
1.346072
1.312096
1.278408
1.245310
1.213032
1.181434
1.150294
1.119558
1.089229
1.059377
1.030221
1.001964
0.974530
0.947754
0.921590
0.896095
0.871499
0.848030
0.825630
0.804130
0.783502
0.763868
0.745478
0.728567
0.713144
0.699150
0.686558
0.675290
0.665258
0.656400
0.648702
0.642290
0.637580
0.634932
0.634216
1.336632
1.319284
1.284738
1.250707
1.217419
1.184743
1.152486
1.120598
1.089080
1.058007
1.027605
0.998069
0.969311
0.941166
0.913590
0.886641
0.860563
0.835588
0.811634
0.788508
0.766176
0.744755
0.724504
0.705652
0.688218
0.672164
0.657604
0.644587
0.632983
0.622667
0.613553
0.605615
0.598971
0.594046
0.591266
0.590521
1.310721
1.293160
1.258302
1.224058
1.190369
1.157050
1.124058
1.091394
1.059134
1.027510
0.996714
0.966653
0.937162
0.908200
0.879831
0.852296
0.825826
0.800324
0.775586
0.751574
0.728399
0.706352
0.685665
0.666303
0.648183
0.631407
0.616247
0.602767
0.590784
0.580145
0.570753
0.562570
0.555688
0.550531
0.547604
0.546825
1.285647
1.267969
1.232880
1.198246
1.163945
1.129923
1.096182
1.062796
1.029991
0.997959
0.966616
0.935805
0.905492
0.875753
0.846816
0.818871
0.791818
0.765471
0.739790
0.714878
0.691056
0.668580
0.647366
0.627273
0.608352
0.590868
0.575120
0.561123
0.548693
0.537689
0.528003
0.519571
0.512444
0.507037
0.503944
0.503128
1.261577
1.243750
1.208267
1.173077
1.138121
1.103397
1.068973
1.035059
1.001841
0.969250
0.937152
0.905532
0.874505
0.844255
0.814881
0.786281
0.758307
0.730946
0.704295
0.678679
0.654409
0.631380
0.609388
0.588443
0.568735
0.550602
0.534255
0.519656
0.506709
0.495306
0.485310
0.476618
0.469236
0.463561
0.460288
0.459430
1.238363
1.220313
1.184322
1.148531
1.112927
1.077570
1.042649
1.008334
0.974567
0.941239
0.908371
0.876140
0.844682
0.813966
0.783863
0.754272
0.725215
0.696798
0.669346
0.643234
0.618388
0.594538
0.571648
0.549867
0.529491
0.510754
0.493692
0.478370
0.464846
0.453009
0.442682
0.433713
0.426063
0.420103
0.416633
0.415731
1.215875
1.197566
1.161024
1.124635
1.088442
1.052619
1.017322
0.982495
0.948038
0.914000
0.880615
0.848029
0.816079
0.784578
0.753465
0.722767
0.692590
0.663260
0.635233
0.608524
0.582817
0.558010
0.534246
0.511793
0.490832
0.471364
0.453432
0.437300
0.423137
0.410818
0.400126
0.390861
0.382930
0.376667
0.372981
0.372031
1.194089
1.175506
1.138403
1.101455
1.064811
1.028634
0.992873
0.957418
0.922304
0.887802
0.854117
0.821029
0.788276
0.755803
0.723624
0.691817
0.660667
0.630681
0.602028
0.574416
0.547671
0.521932
0.497474
0.474424
0.452707
0.432316
0.413460
0.396497
0.381625
0.368748
0.357644
0.348064
0.339847
0.333259
0.329334
0.328329
1.173023
1.154164
1.116517
1.079115
1.042127
1.005529
0.969194
0.933115
0.897531
0.862741
0.828586
0.794724
0.761066
0.727608
0.694399
0.661658
0.629843
0.599227
0.569638
0.540897
0.513116
0.486608
0.461493
0.437625
0.414938
0.393571
0.373820
0.356022
0.340360
0.326823
0.315244
0.305328
0.296819
0.289886
0.285694
0.284626
1.152722
1.133603
1.095487
1.057727
1.020354
0.983221
0.946282
0.909681
0.873776
0.838575
0.803707
0.769000
0.734436
0.700047
0.665998
0.632668
0.600311
0.568812
0.538058
0.508165
0.479475
0.452191
0.426151
0.401236
0.377529
0.355247
0.334663
0.315983
0.299402
0.285080
0.272940
0.262653
0.253848
0.246550
0.242059
0.240921
1.138012
1.113924
1.075443
1.037315
0.999435
0.961708
0.924196
0.887209
0.850938
0.815101
0.779422
0.743857
0.708433
0.673273
0.638706
0.604958
0.571890
0.539369
0.507486
0.476559
0.446931
0.418578
0.391349
0.365317
0.340673
0.317581
0.296124
0.276437
0.258812
0.243570
0.230755
0.220042
0.210933
0.203251
0.198432
0.197214
</DataArray>
<DataArray NumberOfComponents="1" format="ascii" type ="Float32" Name="u">
0.000000
0.000000
0.000000
0.000000
0.000000
0.000000
0.000000
0.000000
0.000000
0.000000
0.000000
0.000000
0.000000
0.000000
0.000000
0.000000
0.000000
0.000000
0.000000
0.000000
0.000000
0.000000
0.000000
0.000000
0.000000
0.000000
0.000000
0.000000
0.000000
0.000000
0.000000
0.000000
0.000000
0.000000
0.000000
0.000000
0.003444
0.003444
0.003449
0.003452
0.003453
0.003452
0.003448
0.003442
0.003433
0.003421
0.003404
0.003383
0.003355
0.003322
0.003280
0.003231
0.003172
0.003103
0.003024
0.002933
0.002831
0.002716
0.002588
0.002448
0.002295
0.002130
0.001954
0.001767
0.001570
0.001365
0.001152
0.000932
0.000707
0.000478
0.000247
0.000014
0.005227
0.005227
0.005233
0.005237
0.005239
0.005239
0.005235
0.005228
0.005216
0.005200
0.005177
0.005147
0.005109
0.005061
0.005002
0.004931
0.004846
0.004746
0.004630
0.004496
0.004344
0.004173
0.003982
0.003771
0.003541
0.003291
0.003023
0.002737
0.002435
0.002118
0.001789
0.001449
0.001099
0.000744
0.000383
0.000021
0.006047
0.006047
0.006053
0.006058
0.006061
0.006061
0.006059
0.006053
0.006042
0.006025
0.006002
0.005971
0.005931
0.005880
0.005816
0.005738
0.005644
0.005533
0.005403
0.005252
0.005080
0.004885
0.004666
0.004424
0.004158
0.003869
0.003557
0.003223
0.002870
0.002498
0.002111
0.001710
0.001298
0.000878
0.000452
0.000024
0.006386
0.006386
0.006392
0.006397
0.006401
0.006403
0.006402
0.006398
0.006390
0.006376
0.006355
0.006327
0.006289
0.006240
0.006178
0.006101
0.006007
0.005895
0.005763
0.005608
0.005430
0.005227
0.004999
0.004744
0.004464
0.004157
0.003825
0.003469
0.003091
0.002692
0.002276
0.001844
0.001400
0.000947
0.000488
0.000025
0.006514
0.006514
0.006521
0.006526
0.006532
0.006535
0.006537
0.006536
0.006531
0.006521
0.006506
0.006482
0.006449
0.006406
0.006349
0.006277
0.006189
0.006081
0.005953
0.005801
0.005624
0.005422
0.005191
0.004933
0.004646
0.004332
0.003990
0.003621
0.003229
0.002814
0.002380
0.001930
0.001466
0.000991
0.000510
0.000026
0.006562
0.006562
0.006569
0.006575
0.006582
0.006588
0.006593
0.006596
0.006596
0.006591
0.006582
0.006565
0.006540
0.006504
0.006455
0.006392
0.006312
0.006212
0.006091
0.005946
0.005775
0.005576
0.005348
0.005090
0.004801
0.004482
0.004133
0.003755
0.003351
0.002923
0.002474
0.002007
0.001524
0.001031
0.000531
0.000027
0.006582
0.006582
0.006589
0.006597
0.006605
0.006614
0.006623
0.006630
0.006636
0.006638
0.006636
0.006628
0.006612
0.006586
0.006548
0.006496
0.006427
0.006338
0.006228
0.006092
0.005929
0.005737
0.005514
0.005258
0.004969
0.004646
0.004291
0.003904
0.003489
0.003046
0.002580
0.002093
0.001591
0.001077
0.000554
0.000028
0.006591
0.006591
0.006599
0.006608
0.006619
0.006631
0.006644
0.006658
0.006670
0.006680
0.006688
0.006690
0.006685
0.006671
0.006647
0.006608
0.006553
0.006478
0.006381
0.006258
0.006106
0.005924
0.005707
0.005455
0.005167
0.004842
0.004480
0.004083
0.003653
0.003194
0.002707
0.002199
0.001672
0.001132
0.000583
0.000030
0.006596
0.006596
0.006604
0.006615
0.006628
0.006645
0.006663
0.006683
0.006703
0.006723
0.006741
0.006755
0.006764
0.006765
0.006755
0.006733
0.006695
0.006638
0.006557
0.006450
0.006313
0.006143
0.005936
0.005691
0.005404
0.005077
0.004708
0.004300
0.003854
0.003374
0.002864
0.002328
0.001771
0.001200
0.000618
0.000032
0.006596
0.006596
0.006605
0.006618
0.006634
0.006655
0.006679
0.006707
0.006736
0.006766
0.006796
0.006824
0.006848
0.006866
0.006875
0.006873
0.006855
0.006818
0.006758
0.006672
0.006553
0.006399
0.006205
0.005968
0.005686
0.005358
0.004982
0.004561
0.004097
0.003593
0.003053
0.002485
0.001892
0.001283
0.000661
0.000035
0.006591
0.006591
0.006601
0.006615
0.006635
0.006661
0.006692
0.006727
0.006767
0.006809
0.006853
0.006896
0.006938
0.006975
0.007006
0.007026
0.007032
0.007020
0.006985
0.006923
0.006828
0.006694
0.006518
0.006294
0.006019
0.005691
0.005309
0.004874
0.004389
0.003857
0.003284
0.002676
0.002040
0.001384
0.000714
0.000038
0.006579
0.006579
0.006590
0.006606
0.006630
0.006661
0.006699
0.006744
0.006794
0.006849
0.006908
0.006969
0.007030
0.007090
0.007144
0.007191
0.007225
0.007242
0.007238
0.007205
0.007139
0.007032
0.006878
0.006672
0.006409
0.006085
0.005698
0.005249
0.004740
0.004176
0.003563
0.002908
0.002220
0.001507
0.000779
0.000043
0.006559
0.006559
0.006570
0.006589
0.006617
0.006654
0.006700
0.006754
0.006816
0.006885
0.006960
0.007040
0.007123
0.007207
0.007289
0.007365
0.007431
0.007483
0.007514
0.007518
0.007488
0.007414
0.007291
0.007109
0.006863
0.006547
0.006158
0.005696
0.005162
0.004562
0.003902
0.003191
0.002440
0.001659
0.000859
0.000051
0.006528
0.006528
0.006540
0.006562
0.006594
0.006637
0.006691
0.006755
0.006830
0.006914
0.007007
0.007107
0.007214
0.007324
0.007436
0.007546
0.007649
0.007741
0.007814
0.007861
0.007874
0.007843
0.007758
0.007609
0.007388
0.007087
0.006701
0.006228
0.005669
0.005029
0.004316
0.003539
0.002712
0.001848
0.000960
0.000061
0.006484
0.006484
0.006498
0.006523
0.006560
0.006609
0.006671
0.006746
0.006834
0.006934
0.007045
0.007167
0.007299
0.007438
0.007583
0.007730
0.007875
0.008012
0.008134
0.008232
0.008298
0.008319
0.008283
0.008179
0.007993
0.007717
0.007341
0.006862
0.006280
0.005597
0.004824
0.003971
0.003053
0.002086
0.001089
0.000077
0.006426
0.006426
0.006442
0.006470
0.006511
0.006568
0.006638
0.006724
0.006825
0.006941
0.007071
0.007216
0.007375
0.007545
0.007725
0.007913
0.008104
0.008291
0.008469
0.008628
0.008757
0.008842
0.008869
0.008822
0.008686
0.008447
0.008093
0.007617
0.007016
0.006291
0.005452
0.004511
0.003484
0.002393
0.001259
0.000104
0.006352
0.006352
0.006370
0.006401
0.006448
0.006511
0.006590
0.006687
0.006801
0.006933
0.007083
0.007251
0.007437
0.007640
0.007858
0.008089
0.008330
0.008574
0.008815
0.009044
0.009246
0.009409
0.009513
0.009541
0.009472
0.009288
0.008973
0.008513
0.007903
0.007141
0.006234
0.005194
0.004040
0.002795
0.001488
0.000148
0.006262
0.006262
0.006283
0.006318
0.006369
0.006438
0.006525
0.006632
0.006759
0.006907
0.007076
0.007268
0.007481
0.007718
0.007975
0.008253
0.008547
0.008853
0.009165
0.009472
0.009761
0.010015
0.010215
0.010337
0.010356
0.010249
0.009993
0.009570