<VTKFile type="StructuredGrid" version="0.1" byte_order="LittleEndian">
<StructuredGrid WholeExtent="1 71 1 81 0 0">
<Piece Extent="36 71 41 61 0 0">
<PointData></PointData>
<CellData></CellData>
<Points>
<DataArray NumberOfComponents="3" format="ascii" type ="Float32" Name="mesh">
1.500000 1.750000 0.0
1.542857 1.750000 0.0
1.585714 1.750000 0.0
1.628571 1.750000 0.0
1.671429 1.750000 0.0
1.714286 1.750000 0.0
1.757143 1.750000 0.0
1.800000 1.750000 0.0
1.842857 1.750000 0.0
1.885714 1.750000 0.0
1.928571 1.750000 0.0
1.971429 1.750000 0.0
2.014286 1.750000 0.0
2.057143 1.750000 0.0
2.100000 1.750000 0.0
2.142857 1.750000 0.0
2.185714 1.750000 0.0
2.228571 1.750000 0.0
2.271429 1.750000 0.0
2.314286 1.750000 0.0
2.357143 1.750000 0.0
2.400000 1.750000 0.0
2.442857 1.750000 0.0
2.485714 1.750000 0.0
2.528571 1.750000 0.0
2.571429 1.750000 0.0
2.614286 1.750000 0.0
2.657143 1.750000 0.0
2.700000 1.750000 0.0
2.742857 1.750000 0.0
2.785714 1.750000 0.0
2.828571 1.750000 0.0
2.871429 1.750000 0.0
2.914286 1.750000 0.0
2.957143 1.750000 0.0
3.000000 1.750000 0.0
1.500000 1.793750 0.0
1.542857 1.793750 0.0
1.585714 1.793750 0.0
1.628571 1.793750 0.0
1.671429 1.793750 0.0
1.714286 1.793750 0.0
1.757143 1.793750 0.0
1.800000 1.793750 0.0
1.842857 1.793750 0.0
1.885714 1.793750 0.0
1.928571 1.793750 0.0
1.971429 1.793750 0.0
2.014286 1.793750 0.0
2.057143 1.793750 0.0
2.100000 1.793750 0.0
2.142857 1.793750 0.0
2.185714 1.793750 0.0
2.228571 1.793750 0.0
2.271429 1.793750 0.0
2.314286 1.793750 0.0
2.357143 1.793750 0.0
2.400000 1.793750 0.0
2.442857 1.793750 0.0
2.485714 1.793750 0.0
2.528571 1.793750 0.0
2.571429 1.793750 0.0
2.614286 1.793750 0.0
2.657143 1.793750 0.0
2.700000 1.793750 0.0
2.742857 1.793750 0.0
2.785714 1.793750 0.0
2.828571 1.793750 0.0
2.871429 1.793750 0.0
2.914286 1.793750 0.0
2.957143 1.793750 0.0
3.000000 1.793750 0.0
1.500000 1.837500 0.0
1.542857 1.837500 0.0
1.585714 1.837500 0.0
1.628571 1.837500 0.0
1.671429 1.837500 0.0
1.714286 1.837500 0.0
1.757143 1.837500 0.0
1.800000 1.837500 0.0
1.842857 1.837500 0.0
1.885714 1.837500 0.0
1.928571 1.837500 0.0
1.971429 1.837500 0.0
2.014286 1.837500 0.0
2.057143 1.837500 0.0
2.100000 1.837500 0.0
2.142857 1.837500 0.0
2.185714 1.837500 0.0
2.228571 1.837500 0.0
2.271429 1.837500 0.0
2.314286 1.837500 0.0
2.357143 1.837500 0.0
2.400000 1.837500 0.0
2.442857 1.837500 0.0
2.485714 1.837500 0.0
2.528571 1.837500 0.0
2.571429 1.837500 0.0
2.614286 1.837500 0.0
2.657143 1.837500 0.0
2.700000 1.837500 0.0
2.742857 1.837500 0.0
2.785714 1.837500 0.0
2.828571 1.837500 0.0
2.871429 1.837500 0.0
2.914286 1.837500 0.0
2.957143 1.837500 0.0
3.000000 1.837500 0.0
1.500000 1.881250 0.0
1.542857 1.881250 0.0
1.585714 1.881250 0.0
1.628571 1.881250 0.0
1.671429 1.881250 0.0
1.714286 1.881250 0.0
1.757143 1.881250 0.0
1.800000 1.881250 0.0
1.842857 1.881250 0.0
1.885714 1.881250 0.0
1.928571 1.881250 0.0
1.971429 1.881250 0.0
2.014286 1.881250 0.0
2.057143 1.881250 0.0
2.100000 1.881250 0.0
2.142857 1.881250 0.0
2.185714 1.881250 0.0
2.228571 1.881250 0.0
2.271429 1.881250 0.0
2.314286 1.881250 0.0
2.357143 1.881250 0.0
2.400000 1.881250 0.0
2.442857 1.881250 0.0
2.485714 1.881250 0.0
2.528571 1.881250 0.0
2.571429 1.881250 0.0
2.614286 1.881250 0.0
2.657143 1.881250 0.0
2.700000 1.881250 0.0
2.742857 1.881250 0.0
2.785714 1.881250 0.0
2.828571 1.881250 0.0
2.871429 1.881250 0.0
2.914286 1.881250 0.0
2.957143 1.881250 0.0
3.000000 1.881250 0.0
1.500000 1.925000 0.0
1.542857 1.925000 0.0
1.585714 1.925000 0.0
1.628571 1.925000 0.0
1.671429 1.925000 0.0
1.714286 1.925000 0.0
1.757143 1.925000 0.0
1.800000 1.925000 0.0
1.842857 1.925000 0.0
1.885714 1.925000 0.0
1.928571 1.925000 0.0
1.971429 1.925000 0.0
2.014286 1.925000 0.0
2.057143 1.925000 0.0
2.100000 1.925000 0.0
2.142857 1.925000 0.0
2.185714 1.925000 0.0
2.228571 1.925000 0.0
2.271429 1.925000 0.0
2.314286 1.925000 0.0
2.357143 1.925000 0.0
2.400000 1.925000 0.0
2.442857 1.925000 0.0
2.485714 1.925000 0.0
2.528571 1.925000 0.0
2.571429 1.925000 0.0
2.614286 1.925000 0.0
2.657143 1.925000 0.0
2.700000 1.925000 0.0
2.742857 1.925000 0.0
2.785714 1.925000 0.0
2.828571 1.925000 0.0
2.871429 1.925000 0.0
2.914286 1.925000 0.0
2.957143 1.925000 0.0
3.000000 1.925000 0.0
1.500000 1.968750 0.0
1.542857 1.968750 0.0
1.585714 1.968750 0.0
1.628571 1.968750 0.0
1.671429 1.968750 0.0
1.714286 1.968750 0.0
1.757143 1.968750 0.0
1.800000 1.968750 0.0
1.842857 1.968750 0.0
1.885714 1.968750 0.0
1.928571 1.968750 0.0
1.971429 1.968750 0.0
2.014286 1.968750 0.0
2.057143 1.968750 0.0
2.100000 1.968750 0.0
2.142857 1.968750 0.0
2.185714 1.968750 0.0
2.228571 1.968750 0.0
2.271429 1.968750 0.0
2.314286 1.968750 0.0
2.357143 1.968750 0.0
2.400000 1.968750 0.0
2.442857 1.968750 0.0
2.485714 1.968750 0.0
2.528571 1.968750 0.0
2.571429 1.968750 0.0
2.614286 1.968750 0.0
2.657143 1.968750 0.0
2.700000 1.968750 0.0
2.742857 1.968750 0.0
2.785714 1.968750 0.0
2.828571 1.968750 0.0
2.871429 1.968750 0.0
2.914286 1.968750 0.0
2.957143 1.968750 0.0
3.000000 1.968750 0.0
1.500000 2.012500 0.0
1.542857 2.012500 0.0
1.585714 2.012500 0.0
1.628571 2.012500 0.0
1.671429 2.012500 0.0
1.714286 2.012500 0.0
1.757143 2.012500 0.0
1.800000 2.012500 0.0
1.842857 2.012500 0.0
1.885714 2.012500 0.0
1.928571 2.012500 0.0
1.971429 2.012500 0.0
2.014286 2.012500 0.0
2.057143 2.012500 0.0
2.100000 2.012500 0.0
2.142857 2.012500 0.0
2.185714 2.012500 0.0
2.228571 2.012500 0.0
2.271429 2.012500 0.0
2.314286 2.012500 0.0
2.357143 2.012500 0.0
2.400000 2.012500 0.0
2.442857 2.012500 0.0
2.485714 2.012500 0.0
2.528571 2.012500 0.0
2.571429 2.012500 0.0
2.614286 2.012500 0.0
2.657143 2.012500 0.0
2.700000 2.012500 0.0
2.742857 2.012500 0.0
2.785714 2.012500 0.0
2.828571 2.012500 0.0
2.871429 2.012500 0.0
2.914286 2.012500 0.0
2.957143 2.012500 0.0
3.000000 2.012500 0.0
1.500000 2.056250 0.0
1.542857 2.056250 0.0
1.585714 2.056250 0.0
1.628571 2.056250 0.0
1.671429 2.056250 0.0
1.714286 2.056250 0.0
1.757143 2.056250 0.0
1.800000 2.056250 0.0
1.842857 2.056250 0.0
1.885714 2.056250 0.0
1.928571 2.056250 0.0
1.971429 2.056250 0.0
2.014286 2.056250 0.0
2.057143 2.056250 0.0
2.100000 2.056250 0.0
2.142857 2.056250 0.0
2.185714 2.056250 0.0
2.228571 2.056250 0.0
2.271429 2.056250 0.0
2.314286 2.056250 0.0
2.357143 2.056250 0.0
2.400000 2.056250 0.0
2.442857 2.056250 0.0
2.485714 2.056250 0.0
2.528571 2.056250 0.0
2.571429 2.056250 0.0
2.614286 2.056250 0.0
2.657143 2.056250 0.0
2.700000 2.056250 0.0
2.742857 2.056250 0.0
2.785714 2.056250 0.0
2.828571 2.056250 0.0
2.871429 2.056250 0.0
2.914286 2.056250 0.0
2.957143 2.056250 0.0
3.000000 2.056250 0.0
1.500000 2.100000 0.0
1.542857 2.100000 0.0
1.585714 2.100000 0.0
1.628571 2.100000 0.0
1.671429 2.100000 0.0
1.714286 2.100000 0.0
1.757143 2.100000 0.0
1.800000 2.100000 0.0
1.842857 2.100000 0.0
1.885714 2.100000 0.0
1.928571 2.100000 0.0
1.971429 2.100000 0.0
2.014286 2.100000 0.0
2.057143 2.100000 0.0
2.100000 2.100000 0.0
2.142857 2.100000 0.0
2.185714 2.100000 0.0
2.228571 2.100000 0.0
2.271429 2.100000 0.0
2.314286 2.100000 0.0
2.357143 2.100000 0.0
2.400000 2.100000 0.0
2.442857 2.100000 0.0
2.485714 2.100000 0.0
2.528571 2.100000 0.0
2.571429 2.100000 0.0
2.614286 2.100000 0.0
2.657143 2.100000 0.0
2.700000 2.100000 0.0
2.742857 2.100000 0.0
2.785714 2.100000 0.0
2.828571 2.100000 0.0
2.871429 2.100000 0.0
2.914286 2.100000 0.0
2.957143 2.100000 0.0
3.000000 2.100000 0.0
1.500000 2.143750 0.0
1.542857 2.143750 0.0
1.585714 2.143750 0.0
1.628571 2.143750 0.0
1.671429 2.143750 0.0
1.714286 2.143750 0.0
1.757143 2.143750 0.0
1.800000 2.143750 0.0
1.842857 2.143750 0.0
1.885714 2.143750 0.0
1.928571 2.143750 0.0
1.971429 2.143750 0.0
2.014286 2.143750 0.0
2.057143 2.143750 0.0
2.100000 2.143750 0.0
2.142857 2.143750 0.0
2.185714 2.143750 0.0
2.228571 2.143750 0.0
2.271429 2.143750 0.0
2.314286 2.143750 0.0
2.357143 2.143750 0.0
2.400000 2.143750 0.0
2.442857 2.143750 0.0
2.485714 2.143750 0.0
2.528571 2.143750 0.0
2.571429 2.143750 0.0
2.614286 2.143750 0.0
2.657143 2.143750 0.0
2.700000 2.143750 0.0
2.742857 2.143750 0.0
2.785714 2.143750 0.0
2.828571 2.143750 0.0
2.871429 2.143750 0.0
2.914286 2.143750 0.0
2.957143 2.143750 0.0
3.000000 2.143750 0.0
1.500000 2.187500 0.0
1.542857 2.187500 0.0
1.585714 2.187500 0.0
1.628571 2.187500 0.0
1.671429 2.187500 0.0
1.714286 2.187500 0.0
1.757143 2.187500 0.0
1.800000 2.187500 0.0
1.842857 2.187500 0.0
1.885714 2.187500 0.0
1.928571 2.187500 0.0
1.971429 2.187500 0.0
2.014286 2.187500 0.0
2.057143 2.187500 0.0
2.100000 2.187500 0.0
2.142857 2.187500 0.0
2.185714 2.187500 0.0
2.228571 2.187500 0.0
2.271429 2.187500 0.0
2.314286 2.187500 0.0
2.357143 2.187500 0.0
2.400000 2.187500 0.0
2.442857 2.187500 0.0
2.485714 2.187500 0.0
2.528571 2.187500 0.0
2.571429 2.187500 0.0
2.614286 2.187500 0.0
2.657143 2.187500 0.0
2.700000 2.187500 0.0
2.742857 2.187500 0.0
2.785714 2.187500 0.0
2.828571 2.187500 0.0
2.871429 2.187500 0.0
2.914286 2.187500 0.0
2.957143 2.187500 0.0
3.000000 2.187500 0.0
1.500000 2.231250 0.0
1.542857 2.231250 0.0
1.585714 2.231250 0.0
1.628571 2.231250 0.0
1.671429 2.231250 0.0
1.714286 2.231250 0.0
1.757143 2.231250 0.0
1.800000 2.231250 0.0
1.842857 2.231250 0.0
1.885714 2.231250 0.0
1.928571 2.231250 0.0
1.971429 2.231250 0.0
2.014286 2.231250 0.0
2.057143 2.231250 0.0
2.100000 2.231250 0.0
2.142857 2.231250 0.0
2.185714 2.231250 0.0
2.228571 2.231250 0.0
2.271429 2.231250 0.0
2.314286 2.231250 0.0
2.357143 2.231250 0.0
2.400000 2.231250 0.0
2.442857 2.231250 0.0
2.485714 2.231250 0.0
2.528571 2.231250 0.0
2.571429 2.231250 0.0
2.614286 2.231250 0.0
2.657143 2.231250 0.0
2.700000 2.231250 0.0
2.742857 2.231250 0.0
2.785714 2.231250 0.0
2.828571 2.231250 0.0
2.871429 2.231250 0.0
2.914286 2.231250 0.0
2.957143 2.231250 0.0
3.000000 2.231250 0.0
1.500000 2.275000 0.0
1.542857 2.275000 0.0
1.585714 2.275000 0.0
1.628571 2.275000 0.0
1.671429 2.275000 0.0
1.714286 2.275000 0.0
1.757143 2.275000 0.0
1.800000 2.275000 0.0
1.842857 2.275000 0.0
1.885714 2.275000 0.0
1.928571 2.275000 0.0
1.971429 2.275000 0.0
2.014286 2.275000 0.0
2.057143 2.275000 0.0
2.100000 2.275000 0.0
2.142857 2.275000 0.0
2.185714 2.275000 0.0
2.228571 2.275000 0.0
2.271429 2.275000 0.0
2.314286 2.275000 0.0
2.357143 2.275000 0.0
2.400000 2.275000 0.0
2.442857 2.275000 0.0
2.485714 2.275000 0.0
2.528571 2.275000 0.0
2.571429 2.275000 0.0
2.614286 2.275000 0.0
2.657143 2.275000 0.0
2.700000 2.275000 0.0
2.742857 2.275000 0.0
2.785714 2.275000 0.0
2.828571 2.275000 0.0
2.871429 2.275000 0.0
2.914286 2.275000 0.0
2.957143 2.275000 0.0
3.000000 2.275000 0.0
1.500000 2.318750 0.0
1.542857 2.318750 0.0
1.585714 2.318750 0.0
1.628571 2.318750 0.0
1.671429 2.318750 0.0
1.714286 2.318750 0.0
1.757143 2.318750 0.0
1.800000 2.318750 0.0
1.842857 2.318750 0.0
1.885714 2.318750 0.0
1.928571 2.318750 0.0
1.971429 2.318750 0.0
2.014286 2.318750 0.0
2.057143 2.318750 0.0
2.100000 2.318750 0.0
2.142857 2.318750 0.0
2.185714 2.318750 0.0
2.228571 2.318750 0.0
2.271429 2.318750 0.0
2.314286 2.318750 0.0
2.357143 2.318750 0.0
2.400000 2.318750 0.0
2.442857 2.318750 0.0
2.485714 2.318750 0.0
2.528571 2.318750 0.0
2.571429 2.318750 0.0
2.614286 2.318750 0.0
2.657143 2.318750 0.0
2.700000 2.318750 0.0
2.742857 2.318750 0.0
2.785714 2.318750 0.0
2.828571 2.318750 0.0
2.871429 2.318750 0.0
2.914286 2.318750 0.0
2.957143 2.318750 0.0
3.000000 2.318750 0.0
1.500000 2.362500 0.0
1.542857 2.362500 0.0
1.585714 2.362500 0.0
1.628571 2.362500 0.0
1.671429 2.362500 0.0
1.714286 2.362500 0.0
1.757143 2.362500 0.0
1.800000 2.362500 0.0
1.842857 2.362500 0.0
1.885714 2.362500 0.0
1.928571 2.362500 0.0
1.971429 2.362500 0.0
2.014286 2.362500 0.0
2.057143 2.362500 0.0
2.100000 2.362500 0.0
2.142857 2.362500 0.0
2.185714 2.362500 0.0
2.228571 2.362500 0.0
2.271429 2.362500 0.0
2.314286 2.362500 0.0
2.357143 2.362500 0.0
2.400000 2.362500 0.0
2.442857 2.362500 0.0
2.485714 2.362500 0.0
2.528571 2.362500 0.0
2.571429 2.362500 0.0
2.614286 2.362500 0.0
2.657143 2.362500 0.0
2.700000 2.362500 0.0
2.742857 2.362500 0.0
2.785714 2.362500 0.0
2.828571 2.362500 0.0
2.871429 2.362500 0.0
2.914286 2.362500 0.0
2.957143 2.362500 0.0
3.000000 2.362500 0.0
1.500000 2.406250 0.0
1.542857 2.406250 0.0
1.585714 2.406250 0.0
1.628571 2.406250 0.0
1.671429 2.406250 0.0
1.714286 2.406250 0.0
1.757143 2.406250 0.0
1.800000 2.406250 0.0
1.842857 2.406250 0.0
1.885714 2.406250 0.0
1.928571 2.406250 0.0
1.971429 2.406250 0.0
2.014286 2.406250 0.0
2.057143 2.406250 0.0
2.100000 2.406250 0.0
2.142857 2.406250 0.0
2.185714 2.406250 0.0
2.228571 2.406250 0.0
2.271429 2.406250 0.0
2.314286 2.406250 0.0
2.357143 2.406250 0.0
2.400000 2.406250 0.0
2.442857 2.406250 0.0
2.485714 2.406250 0.0
2.528571 2.406250 0.0
2.571429 2.406250 0.0
2.614286 2.406250 0.0
2.657143 2.406250 0.0
2.700000 2.406250 0.0
2.742857 2.406250 0.0
2.785714 2.406250 0.0
2.828571 2.406250 0.0
2.871429 2.406250 0.0
2.914286 2.406250 0.0
2.957143 2.406250 0.0
3.000000 2.406250 0.0
1.500000 2.450000 0.0
1.542857 2.450000 0.0
1.585714 2.450000 0.0
1.628571 2.450000 0.0
1.671429 2.450000 0.0
1.714286 2.450000 0.0
1.757143 2.450000 0.0
1.800000 2.450000 0.0
1.842857 2.450000 0.0
1.885714 2.450000 0.0
1.928571 2.450000 0.0
1.971429 2.450000 0.0
2.014286 2.450000 0.0
2.057143 2.450000 0.0
2.100000 2.450000 0.0
2.142857 2.450000 0.0
2.185714 2.450000 0.0
2.228571 2.450000 0.0
2.271429 2.450000 0.0
2.314286 2.450000 0.0
2.357143 2.450000 0.0
2.400000 2.450000 0.0
2.442857 2.450000 0.0
2.485714 2.450000 0.0
2.528571 2.450000 0.0
2.571429 2.450000 0.0
2.614286 2.450000 0.0
2.657143 2.450000 0.0
2.700000 2.450000 0.0
2.742857 2.450000 0.0
2.785714 2.450000 0.0
2.828571 2.450000 0.0
2.871429 2.450000 0.0
2.914286 2.450000 0.0
2.957143 2.450000 0.0
3.000000 2.450000 0.0
1.500000 2.493750 0.0
1.542857 2.493750 0.0
1.585714 2.493750 0.0
1.628571 2.493750 0.0
1.671429 2.493750 0.0
1.714286 2.493750 0.0
1.757143 2.493750 0.0
1.800000 2.493750 0.0
1.842857 2.493750 0.0
1.885714 2.493750 0.0
1.928571 2.493750 0.0
1.971429 2.493750 0.0
2.014286 2.493750 0.0
2.057143 2.493750 0.0
2.100000 2.493750 0.0
2.142857 2.493750 0.0
2.185714 2.493750 0.0
2.228571 2.493750 0.0
2.271429 2.493750 0.0
2.314286 2.493750 0.0
2.357143 2.493750 0.0
2.400000 2.493750 0.0
2.442857 2.493750 0.0
2.485714 2.493750 0.0
2.528571 2.493750 0.0
2.571429 2.493750 0.0
2.614286 2.493750 0.0
2.657143 2.493750 0.0
2.700000 2.493750 0.0
2.742857 2.493750 0.0
2.785714 2.493750 0.0
2.828571 2.493750 0.0
2.871429 2.493750 0.0
2.914286 2.493750 0.0
2.957143 2.493750 0.0
3.000000 2.493750 0.0
1.500000 2.537500 0.0
1.542857 2.537500 0.0
1.585714 2.537500 0.0
1.628571 2.537500 0.0
1.671429 2.537500 0.0
1.714286 2.537500 0.0
1.757143 2.537500 0.0
1.800000 2.537500 0.0
1.842857 2.537500 0.0
1.885714 2.537500 0.0
1.928571 2.537500 0.0
1.971429 2.537500 0.0
2.014286 2.537500 0.0
2.057143 2.537500 0.0
2.100000 2.537500 0.0
2.142857 2.537500 0.0
2.185714 2.537500 0.0
2.228571 2.537500 0.0
2.271429 2.537500 0.0
2.314286 2.537500 0.0
2.357143 2.537500 0.0
2.400000 2.537500 0.0
2.442857 2.537500 0.0
2.485714 2.537500 0.0
2.528571 2.537500 0.0
2.571429 2.537500 0.0
2.614286 2.537500 0.0
2.657143 2.537500 0.0
2.700000 2.537500 0.0
2.742857 2.537500 0.0
2.785714 2.537500 0.0
2.828571 2.537500 0.0
2.871429 2.537500 0.0
2.914286 2.537500 0.0
2.957143 2.537500 0.0
3.000000 2.537500 0.0
1.500000 2.581250 0.0
1.542857 2.581250 0.0
1.585714 2.581250 0.0
1.628571 2.581250 0.0
1.671429 2.581250 0.0
1.714286 2.581250 0.0
1.757143 2.581250 0.0
1.800000 2.581250 0.0
1.842857 2.581250 0.0
1.885714 2.581250 0.0
1.928571 2.581250 0.0
1.971429 2.581250 0.0
2.014286 2.581250 0.0
2.057143 2.581250 0.0
2.100000 2.581250 0.0
2.142857 2.581250 0.0
2.185714 2.581250 0.0
2.228571 2.581250 0.0
2.271429 2.581250 0.0
2.314286 2.581250 0.0
2.357143 2.581250 0.0
2.400000 2.581250 0.0
2.442857 2.581250 0.0
2.485714 2.581250 0.0
2.528571 2.581250 0.0
2.571429 2.581250 0.0
2.614286 2.581250 0.0
2.657143 2.581250 0.0
2.700000 2.581250 0.0
2.742857 2.581250 0.0
2.785714 2.581250 0.0
2.828571 2.581250 0.0
2.871429 2.581250 0.0
2.914286 2.581250 0.0
2.957143 2.581250 0.0
3.000000 2.581250 0.0
1.500000 2.625000 0.0
1.542857 2.625000 0.0
1.585714 2.625000 0.0
1.628571 2.625000 0.0
1.671429 2.625000 0.0
1.714286 2.625000 0.0
1.757143 2.625000 0.0
1.800000 2.625000 0.0
1.842857 2.625000 0.0
1.885714 2.625000 0.0
1.928571 2.625000 0.0
1.971429 2.625000 0.0
2.014286 2.625000 0.0
2.057143 2.625000 0.0
2.100000 2.625000 0.0
2.142857 2.625000 0.0
2.185714 2.625000 0.0
2.228571 2.625000 0.0
2.271429 2.625000 0.0
2.314286 2.625000 0.0
2.357143 2.625000 0.0
2.400000 2.625000 0.0
2.442857 2.625000 0.0
2.485714 2.625000 0.0
2.528571 2.625000 0.0
2.571429 2.625000 0.0
2.614286 2.625000 0.0
2.657143 2.625000 0.0
2.700000 2.625000 0.0
2.742857 2.625000 0.0
2.785714 2.625000 0.0
2.828571 2.625000 0.0
2.871429 2.625000 0.0
2.914286 2.625000 0.0
2.957143 2.625000 0.0
3.000000 2.625000 0.0
</DataArray></Points>
<PointData>
<DataArray NumberOfComponents="1" format="ascii" type ="Float32" Name="phi">
-0.370934
-0.364426
-0.346742
-0.321975
-0.290737
-0.255070
-0.217204
-0.178365
-0.138977
-0.099190
-0.059147
-0.015466
0.028976
0.070710
0.112612
0.154641
0.196770
0.238981
0.281260
0.323589
0.365963
0.408378
0.450829
0.493308
0.535809
0.578332
0.620876
0.663499
0.703870
0.733706
0.747004
0.749443
0.749310
0.749159
0.749044
0.738058
-0.328528
-0.323021
-0.308440
-0.288517
-0.262795
-0.231593
-0.196603
-0.159508
-0.121356
-0.082701
-0.043963
-0.001444
0.041931
0.082527
0.123486
0.164711
0.206148
0.247771
0.289551
0.331449
0.373447
0.415537
0.457700
0.499917
0.542179
0.584487
0.626926
0.666135
0.693356
0.704344
0.705949
0.705749
0.705563
0.705411
0.705294
0.705245
-0.285788
-0.280942
-0.268146
-0.251071
-0.229633
-0.203145
-0.171969
-0.137579
-0.101445
-0.064015
-0.024262
0.017525
0.058227
0.097707
0.137622
0.177891
0.218471
0.259334
0.300432
0.341710
0.383157
0.424764
0.466497
0.508326
0.550311
0.592432
0.629743
0.653442
0.661767
0.662493
0.662229
0.662003
0.661816
0.661663
0.661545
0.661495
-0.242775
-0.238518
-0.227055
-0.211655
-0.192900
-0.170006
-0.142391
-0.111060
-0.077869
-0.042016
-0.001436
0.039131
0.077120
0.115441
0.154304
0.193613
0.233326
0.273398
0.313747
0.354325
0.395138
0.436168
0.477369
0.518703
0.559601
0.593880
0.613511
0.619165
0.619085
0.618757
0.618484
0.618257
0.618069
0.617915
0.617796
0.617746
-0.199526
-0.195844
-0.185525
-0.171306
-0.154281
-0.133851
-0.109159
-0.080442
-0.049522
-0.014198
0.024958
0.062459
0.098793
0.135839
0.173509
0.211737
0.250476
0.289653
0.329176
0.369014
0.409171
0.449587
0.490197
0.528792
0.558239
0.572860
0.576116
0.575739
0.575343
0.575013
0.574739
0.574511
0.574321
0.574166
0.574046
0.573996
-0.156091
-0.152972
-0.143695
-0.130414
-0.114680
-0.096058
-0.074162
-0.048111
-0.017473
0.017038
0.052468
0.087190
0.122502
0.158428
0.194977
0.232129
0.269845
0.308050
0.346675
0.385696
0.425107
0.465045
0.500000
0.522739
0.531993
0.533030
0.532476
0.531999
0.531600
0.531269
0.530994
0.530764
0.530574
0.530417
0.530297
0.530246
-0.112533
-0.109944
-0.101644
-0.089150
-0.074556
-0.057281
-0.036572
-0.011472
0.018139
0.049234
0.080812
0.113695
0.147741
0.182602
0.218161
0.254354
0.291116
0.328388
0.366160
0.404362
0.441172
0.470345
0.486374
0.490598
0.489980
0.489306
0.488736
0.488257
0.487857
0.487524
0.487248
0.487017
0.486826
0.486668
0.486547
0.486496
-0.068952
-0.066824
-0.059513
-0.047687
-0.033172
-0.015868
0.004861
0.028636
0.054615
0.082054
0.111158
0.142120
0.174659
0.208322
0.242849
0.278098
0.313956
0.350357
0.387261
0.418416
0.438549
0.447272
0.447956
0.447039
0.446244
0.445567
0.444995
0.444514
0.444113
0.443779
0.443501
0.443270
0.443077
0.442919
0.442797
0.442746
-0.023786
-0.021961
-0.015460
-0.004257
0.010301
0.027029
0.046068
0.067250
0.090505
0.116013
0.143344
0.172486
0.203350
0.235634
0.269012
0.303254
0.338187
0.369745
0.392673
0.404381
0.406493
0.405312
0.404234
0.403304
0.402506
0.401827
0.401252
0.400770
0.400368
0.400033
0.399754
0.399522
0.399329
0.399170
0.399048
0.398996
0.022170
0.023735
0.029316
0.039445
0.053069
0.068370
0.085483
0.105153
0.127104
0.151095
0.176954
0.204546
0.233814
0.264608
0.296667
0.326664
0.348908
0.361846
0.365619
0.364259
0.362830
0.361583
0.360501
0.359567
0.358767
0.358085
0.357509
0.357026
0.356622
0.356286
0.356007
0.355774
0.355580
0.355421
0.355298
0.355246
0.066587
0.067938
0.072691
0.081645
0.094338
0.109091
0.125423
0.143852
0.164501
0.187191
0.211719
0.237931
0.265768
0.291242
0.309885
0.321931
0.325778
0.324068
0.322186
0.320542
0.319106
0.317854
0.316767
0.315830
0.315027
0.314343
0.313765
0.313280
0.312876
0.312539
0.312259
0.312026
0.311831
0.311672
0.311548
0.311496
0.110299
0.111561
0.115936
0.124101
0.135925
0.150050
0.165712
0.183156
0.202622
0.224122
0.245903
0.262938
0.275939
0.285333
0.287143
0.284875
0.282535
0.280371
0.278477
0.276824
0.275380
0.274123
0.273032
0.272092
0.271286
0.270600
0.270020
0.269534
0.269129
0.268791
0.268511
0.268277
0.268082
0.267922
0.267799
0.267746
0.154032
0.155216
0.159271
0.166744
0.177742
0.191217
0.206271
0.219323
0.228776
0.237906
0.246482
0.249582
0.247977
0.245862
0.243543
0.241195
0.238849
0.236673
0.234767
0.233105
0.231654
0.230391
0.229296
0.228352
0.227544
0.226856
0.226275
0.225788
0.225381
0.225043
0.224762
0.224528
0.224333
0.224173
0.224049
0.223996
0.191820
0.192247
0.193695
0.196451
0.200685
0.206022
0.212067
0.215241
0.213868
0.211213
0.208692
0.206348
0.204281
0.202176
0.199860
0.197514
0.195164
0.192975
0.191056
0.189385
0.187927
0.186659
0.185560
0.184613
0.183801
0.183112
0.182529
0.182041
0.181634
0.181295
0.181014
0.180779
0.180583
0.180423
0.180299
0.180247
0.185858
0.185564
0.184561
0.182935
0.180814
0.178349
0.175687
0.172939
0.170199
0.167539
0.165010
0.162655
0.160587
0.158490
0.156177
0.153833
0.151477
0.149277
0.147345
0.145664
0.144200
0.142926
0.141823
0.140872
0.140059
0.139367
0.138783
0.138294
0.137886
0.137547
0.137265
0.137030
0.136834
0.136673
0.136549
0.136497
0.142103
0.141810
0.140819
0.139217
0.137119
0.134673
0.132020
0.129275
0.126532
0.123867
0.121329
0.118962
0.116894
0.114803
0.112493
0.110152
0.107791
0.105579
0.103634
0.101944
0.100473
0.099193
0.098086
0.097132
0.096316
0.095622
0.095037
0.094546
0.094138
0.093798
0.093516
0.093280
0.093084
0.092924
0.092799
0.092747
0.098362
0.098072
0.097096
0.095514
0.093437
0.091005
0.088359
0.085614
0.082869
0.080197
0.077651
0.075271
0.073206
0.071123
0.068811
0.066469
0.064101
0.061876
0.059918
0.058217
0.056738
0.055453
0.054341
0.053385
0.052566
0.051871
0.051285
0.050794
0.050385
0.050045
0.049763
0.049528
0.049332
0.049172
0.049048
0.048995
0.054655
0.054370
0.053406
0.051840
0.049776
0.047353
0.044707
0.041958
0.039208
0.036529
0.033974
0.031575
0.029399
0.027267
0.025052
0.022789
0.020458
0.018263
0.016342
0.014671
0.013214
0.011945
0.010843
0.009891
0.009072
0.008372
0.007777
0.007274
0.006850
0.006493
0.006192
0.005935
0.005718
0.005537
0.005402
0.005347
0.009391
0.009117
0.008199
0.006708
0.004742
0.002431
-0.000097
-0.002725
-0.005353
-0.007914
-0.010357
-0.012656
-0.014824
-0.016885
-0.018897
-0.020999
-0.023216
-0.025334
-0.027203
-0.028845
-0.030294
-0.031556
-0.032649
-0.033597
-0.034417
-0.035122
-0.035726
-0.036241
-0.036680
-0.037055
-0.037377
-0.037654
-0.037895
-0.038096
-0.038242
-0.038298
-0.035906
-0.036168
-0.037039
-0.038452
-0.040316
-0.042511
-0.044910
-0.047405
-0.049907
-0.052346
-0.054675
-0.056865
-0.058918
-0.060861
-0.062773
-0.064793
-0.066939
-0.069021
-0.070890
-0.072543
-0.074012
-0.075289
-0.076386
-0.077338
-0.078160
-0.078867
-0.079472
-0.079989
-0.080429
-0.080804
-0.081126
-0.081404
-0.081644
-0.081846
-0.081992
-0.082049
-0.079654
-0.079912
-0.080771
-0.082168
-0.084015
-0.086196
-0.088580
-0.091066
-0.093567
-0.096009
-0.098344
-0.100543
-0.102607
-0.104557
-0.106471
-0.108489
-0.110632
-0.112720
-0.114602
-0.116265
-0.117740
-0.119022
-0.120123
-0.121078
-0.121902
-0.122611
-0.123218
-0.123736
-0.124176
-0.124552
-0.124874
-0.125153
-0.125394
-0.125596
-0.125742
-0.114861
</DataArray>
<DataArray NumberOfComponents="1" format="ascii" type ="Float32" Name="u">
0.000371
0.000572
0.000765
0.000954
0.001147
0.001359
0.001618
0.001989
0.002605
0.003740
0.005877
0.009376
0.013209
0.013459
0.012391
0.010927
0.009418
0.007999
0.006723
0.005611
0.004668
0.003883
0.003239
0.002715
0.002291
0.001948
0.001671
0.001450
0.001273
0.001136
0.001032
0.000958
0.000909
0.000882
0.000873
0.000873
0.000446
0.000657
0.000860
0.001071
0.001310
0.001608
0.002022
0.002657
0.003711
0.005550
0.008742
0.014150
0.016437
0.016042
0.014636
0.012965
0.011306
0.009760
0.008365
0.007135
0.006070
0.005163
0.004401
0.003768
0.003244
0.002815
0.002465
0.002181
0.001954
0.001774
0.001636
0.001535
0.001464
0.001419
0.001394
0.001394
0.000500
0.000733
0.000966
0.001227
0.001554
0.002004
0.002664
0.003688
0.005334
0.008060
0.012437
0.018427
0.019393
0.018276
0.016512
0.014638
0.012843
0.011193
0.009708
0.008394
0.007246
0.006255
0.005411
0.004697
0.004100
0.003604
0.003194
0.002859
0.002588
0.002373
0.002206
0.002082
0.001995
0.001940
0.001915
0.001915
0.000517
0.000808
0.001111
0.001478
0.001973
0.002683
0.003730
0.005333
0.007818
0.011670
0.017546
0.021667
0.021471
0.019823
0.017812
0.015809
0.013937
0.012234
0.010708
0.009354
0.008166
0.007132
0.006241
0.005480
0.004835
0.004293
0.003841
0.003468
0.003165
0.002922
0.002733
0.002591
0.002493
0.002433
0.002407
0.002407
0.000488
0.000902
0.001352
0.001912
0.002683
0.003796
0.005390
0.007799
0.011262
0.016533
0.022180
0.023682
0.022539
0.020555
0.018429
0.016398
0.014532
0.012847
0.011339
0.009999
0.008816
0.007780
0.006878
0.006101
0.005435
0.004869
0.004394
0.003998
0.003674
0.003412
0.003208
0.003055
0.002949
0.002885
0.002858
0.002858
0.000412
0.001058
0.001767
0.002630
0.003795
0.005494
0.007761
0.011215
0.015842
0.021361
0.024558
0.024310
0.022578
0.020459
0.018360
0.016410
0.014640
0.013045
0.011616
0.010340
0.009206
0.008205
0.007325
0.006559
0.005897
0.005329
0.004847
0.004442
0.004108
0.003838
0.003625
0.003465
0.003355
0.003289
0.003262
0.003262
0.000285
0.001325
0.002452
0.003736
0.005346
0.007913
0.011171
0.015324
0.020146
0.023772
0.024662
0.023547
0.021654
0.019629
0.017704
0.015940
0.014340
0.012895
0.011592
0.010418
0.009367
0.008429
0.007597
0.006865
0.006226
0.005673
0.005200
0.004800
0.004467
0.004195
0.003981
0.003820
0.003708
0.003642
0.003614
0.003614
0.000135
0.001726
0.003459
0.005389
0.007693
0.010834
0.014591
0.018412
0.021798
0.023418
0.023187
0.021824
0.020077
0.018314
0.016661
0.015144
0.013759
0.012495
0.011341
0.010292
0.009342
0.008485
0.007718
0.007036
0.006435
0.005911
0.005459
0.005073
0.004750
0.004486
0.004276
0.004118
0.004008
0.003942
0.003914
0.003914
-0.000096
0.002047
0.004360
0.006946
0.009930
0.012951
0.016131
0.018983
0.020939
0.021550
0.020949
0.019696
0.018244
0.016806
0.015451
0.014191
0.013024
0.011942
0.010942
0.010022
0.009178
0.008410
0.007716
0.007094
0.006541
0.006055
0.005632
0.005269
0.004963
0.004712
0.004511
0.004359
0.004253
0.004190
0.004162
0.004162
-0.000263
0.002224
0.004817
0.007629
0.010619
0.013283
0.015791
0.017817
0.019028
0.019211
0.018597
0.017584
0.016449
0.015319
0.014234
0.013204
0.012231
0.011315
0.010457
0.009657
0.008917
0.008238
0.007619
0.007060
0.006560
0.006117
0.005729
0.005395
0.005112
0.004877
0.004690
0.004547
0.004448
0.004388
0.004362
0.004362
-0.000242
0.002313
0.004914
0.007584
0.010198
0.012523
0.014594
0.016114
0.016906
0.016944
0.016449
0.015687
0.014829
0.013954
0.013091
0.012251
0.011441
0.010665
0.009928
0.009236
0.008591
0.007995
0.007450
0.006954
0.006509
0.006112
0.005763
0.005461
0.005204
0.004990
0.004818
0.004688
0.004596
0.004540
0.004516
0.004516
-0.000208
0.002252
0.004717
0.007150
0.009441
0.011466
0.013161
0.014337
0.014911
0.014939
0.014594
0.014050
0.013416
0.012743
0.012055
0.011365
0.010683
0.010020
0.009385
0.008785
0.008225
0.007706
0.007230
0.006797
0.006405
0.006056
0.005747
0.005479
0.005250
0.005059
0.004905
0.004788
0.004705
0.004655
0.004633
0.004633
-0.000217
0.002089
0.004365
0.006554
0.008568
0.010317
0.011720
0.012672
0.013149
0.013224
0.013024
0.012661
0.012205
0.011693
0.011142
0.010565
0.009979
0.009402
0.008849
0.008328
0.007842
0.007394
0.006983
0.006609
0.006271
0.005968
0.005700
0.005467
0.005267
0.005099
0.004964
0.004861
0.004788
0.004744
0.004724
0.004724
-0.000242
0.001874
0.003941
0.005897
0.007666
0.009179
0.010371
0.011188
0.011636
0.011782
0.011713
0.011503
0.011197
0.010816
0.010373
0.009878
0.009355
0.008837
0.008346
0.007890
0.007471
0.007088
0.006739
0.006422
0.006136
0.005879
0.005652
0.005452
0.005281
0.005138
0.005022
0.004933
0.004871
0.004832
0.004815
0.004815
-0.000269
0.001640
0.003495
0.005233
0.006791
0.008114
0.009159
0.009902
0.010361
0.010587
0.010642
0.010573
0.010406
0.010149
0.009800
0.009359
0.008853
0.008362
0.007917
0.007519
0.007163
0.006842
0.006553
0.006290
0.006054
0.005841
0.005652
0.005486
0.005342
0.005222
0.005125
0.005050
0.004997
0.004965
0.004950
0.004950
-0.000289
0.001412
0.003061
0.004602
0.005981
0.007158
0.008104
0.008812
0.009302
0.009614
0.009790
0.009861
0.009843
0.009731
0.009500
0.009106
0.008541
0.008042
0.007634
0.007294
0.007002
0.006744
0.006513
0.006304
0.006114
0.005942
0.005789
0.005653
0.005535
0.005436
0.005355
0.005293
0.005249
0.005222
0.005209
0.005209
-0.000296
0.001210
0.002674
0.004043
0.005276
0.006340
0.007218
0.007910
0.008433
0.008817
0.009097
0.009296
0.009429
0.009497
0.009463
0.009229
0.008479
0.007967
0.007617
0.007352
0.007132
0.006940
0.006766
0.006606
0.006458
0.006323
0.006200
0.006090
0.005993
0.005911
0.005844
0.005792
0.005756
0.005733
0.005723
0.005723
-0.000276
0.001075
0.002394
0.003634
0.004760
0.005744
0.006574
0.007250
0.007783
0.008198
0.008517
0.008764
0.008956
0.009104
0.009194
0.009152
0.008585
0.008263
0.008058
0.007900
0.007762
0.007631
0.007506
0.007385
0.007269
0.007159
0.007057
0.006964
0.006881
0.006810
0.006751
0.006706
0.006674
0.006654
0.006645
0.006645
-0.000201
0.001091
0.002351
0.003536
0.004612
0.005555