<VTKFile type="StructuredGrid" version="0.1" byte_order="LittleEndian">
<StructuredGrid WholeExtent="1 71 1 81 0 0">
<Piece Extent="36 71 61 81 0 0">
<PointData></PointData>
<CellData></CellData>
<Points>
<DataArray NumberOfComponents="3" format="ascii" type ="Float32" Name="mesh">
1.500000 2.625000 0.0
1.542857 2.625000 0.0
1.585714 2.625000 0.0
1.628571 2.625000 0.0
1.671429 2.625000 0.0
1.714286 2.625000 0.0
1.757143 2.625000 0.0
1.800000 2.625000 0.0
1.842857 2.625000 0.0
1.885714 2.625000 0.0
1.928571 2.625000 0.0
1.971429 2.625000 0.0
2.014286 2.625000 0.0
2.057143 2.625000 0.0
2.100000 2.625000 0.0
2.142857 2.625000 0.0
2.185714 2.625000 0.0
2.228571 2.625000 0.0
2.271429 2.625000 0.0
2.314286 2.625000 0.0
2.357143 2.625000 0.0
2.400000 2.625000 0.0
2.442857 2.625000 0.0
2.485714 2.625000 0.0
2.528571 2.625000 0.0
2.571429 2.625000 0.0
2.614286 2.625000 0.0
2.657143 2.625000 0.0
2.700000 2.625000 0.0
2.742857 2.625000 0.0
2.785714 2.625000 0.0
2.828571 2.625000 0.0
2.871429 2.625000 0.0
2.914286 2.625000 0.0
2.957143 2.625000 0.0
3.000000 2.625000 0.0
1.500000 2.668750 0.0
1.542857 2.668750 0.0
1.585714 2.668750 0.0
1.628571 2.668750 0.0
1.671429 2.668750 0.0
1.714286 2.668750 0.0
1.757143 2.668750 0.0
1.800000 2.668750 0.0
1.842857 2.668750 0.0
1.885714 2.668750 0.0
1.928571 2.668750 0.0
1.971429 2.668750 0.0
2.014286 2.668750 0.0
2.057143 2.668750 0.0
2.100000 2.668750 0.0
2.142857 2.668750 0.0
2.185714 2.668750 0.0
2.228571 2.668750 0.0
2.271429 2.668750 0.0
2.314286 2.668750 0.0
2.357143 2.668750 0.0
2.400000 2.668750 0.0
2.442857 2.668750 0.0
2.485714 2.668750 0.0
2.528571 2.668750 0.0
2.571429 2.668750 0.0
2.614286 2.668750 0.0
2.657143 2.668750 0.0
2.700000 2.668750 0.0
2.742857 2.668750 0.0
2.785714 2.668750 0.0
2.828571 2.668750 0.0
2.871429 2.668750 0.0
2.914286 2.668750 0.0
2.957143 2.668750 0.0
3.000000 2.668750 0.0
1.500000 2.712500 0.0
1.542857 2.712500 0.0
1.585714 2.712500 0.0
1.628571 2.712500 0.0
1.671429 2.712500 0.0
1.714286 2.712500 0.0
1.757143 2.712500 0.0
1.800000 2.712500 0.0
1.842857 2.712500 0.0
1.885714 2.712500 0.0
1.928571 2.712500 0.0
1.971429 2.712500 0.0
2.014286 2.712500 0.0
2.057143 2.712500 0.0
2.100000 2.712500 0.0
2.142857 2.712500 0.0
2.185714 2.712500 0.0
2.228571 2.712500 0.0
2.271429 2.712500 0.0
2.314286 2.712500 0.0
2.357143 2.712500 0.0
2.400000 2.712500 0.0
2.442857 2.712500 0.0
2.485714 2.712500 0.0
2.528571 2.712500 0.0
2.571429 2.712500 0.0
2.614286 2.712500 0.0
2.657143 2.712500 0.0
2.700000 2.712500 0.0
2.742857 2.712500 0.0
2.785714 2.712500 0.0
2.828571 2.712500 0.0
2.871429 2.712500 0.0
2.914286 2.712500 0.0
2.957143 2.712500 0.0
3.000000 2.712500 0.0
1.500000 2.756250 0.0
1.542857 2.756250 0.0
1.585714 2.756250 0.0
1.628571 2.756250 0.0
1.671429 2.756250 0.0
1.714286 2.756250 0.0
1.757143 2.756250 0.0
1.800000 2.756250 0.0
1.842857 2.756250 0.0
1.885714 2.756250 0.0
1.928571 2.756250 0.0
1.971429 2.756250 0.0
2.014286 2.756250 0.0
2.057143 2.756250 0.0
2.100000 2.756250 0.0
2.142857 2.756250 0.0
2.185714 2.756250 0.0
2.228571 2.756250 0.0
2.271429 2.756250 0.0
2.314286 2.756250 0.0
2.357143 2.756250 0.0
2.400000 2.756250 0.0
2.442857 2.756250 0.0
2.485714 2.756250 0.0
2.528571 2.756250 0.0
2.571429 2.756250 0.0
2.614286 2.756250 0.0
2.657143 2.756250 0.0
2.700000 2.756250 0.0
2.742857 2.756250 0.0
2.785714 2.756250 0.0
2.828571 2.756250 0.0
2.871429 2.756250 0.0
2.914286 2.756250 0.0
2.957143 2.756250 0.0
3.000000 2.756250 0.0
1.500000 2.800000 0.0
1.542857 2.800000 0.0
1.585714 2.800000 0.0
1.628571 2.800000 0.0
1.671429 2.800000 0.0
1.714286 2.800000 0.0
1.757143 2.800000 0.0
1.800000 2.800000 0.0
1.842857 2.800000 0.0
1.885714 2.800000 0.0
1.928571 2.800000 0.0
1.971429 2.800000 0.0
2.014286 2.800000 0.0
2.057143 2.800000 0.0
2.100000 2.800000 0.0
2.142857 2.800000 0.0
2.185714 2.800000 0.0
2.228571 2.800000 0.0
2.271429 2.800000 0.0
2.314286 2.800000 0.0
2.357143 2.800000 0.0
2.400000 2.800000 0.0
2.442857 2.800000 0.0
2.485714 2.800000 0.0
2.528571 2.800000 0.0
2.571429 2.800000 0.0
2.614286 2.800000 0.0
2.657143 2.800000 0.0
2.700000 2.800000 0.0
2.742857 2.800000 0.0
2.785714 2.800000 0.0
2.828571 2.800000 0.0
2.871429 2.800000 0.0
2.914286 2.800000 0.0
2.957143 2.800000 0.0
3.000000 2.800000 0.0
1.500000 2.843750 0.0
1.542857 2.843750 0.0
1.585714 2.843750 0.0
1.628571 2.843750 0.0
1.671429 2.843750 0.0
1.714286 2.843750 0.0
1.757143 2.843750 0.0
1.800000 2.843750 0.0
1.842857 2.843750 0.0
1.885714 2.843750 0.0
1.928571 2.843750 0.0
1.971429 2.843750 0.0
2.014286 2.843750 0.0
2.057143 2.843750 0.0
2.100000 2.843750 0.0
2.142857 2.843750 0.0
2.185714 2.843750 0.0
2.228571 2.843750 0.0
2.271429 2.843750 0.0
2.314286 2.843750 0.0
2.357143 2.843750 0.0
2.400000 2.843750 0.0
2.442857 2.843750 0.0
2.485714 2.843750 0.0
2.528571 2.843750 0.0
2.571429 2.843750 0.0
2.614286 2.843750 0.0
2.657143 2.843750 0.0
2.700000 2.843750 0.0
2.742857 2.843750 0.0
2.785714 2.843750 0.0
2.828571 2.843750 0.0
2.871429 2.843750 0.0
2.914286 2.843750 0.0
2.957143 2.843750 0.0
3.000000 2.843750 0.0
1.500000 2.887500 0.0
1.542857 2.887500 0.0
1.585714 2.887500 0.0
1.628571 2.887500 0.0
1.671429 2.887500 0.0
1.714286 2.887500 0.0
1.757143 2.887500 0.0
1.800000 2.887500 0.0
1.842857 2.887500 0.0
1.885714 2.887500 0.0
1.928571 2.887500 0.0
1.971429 2.887500 0.0
2.014286 2.887500 0.0
2.057143 2.887500 0.0
2.100000 2.887500 0.0
2.142857 2.887500 0.0
2.185714 2.887500 0.0
2.228571 2.887500 0.0
2.271429 2.887500 0.0
2.314286 2.887500 0.0
2.357143 2.887500 0.0
2.400000 2.887500 0.0
2.442857 2.887500 0.0
2.485714 2.887500 0.0
2.528571 2.887500 0.0
2.571429 2.887500 0.0
2.614286 2.887500 0.0
2.657143 2.887500 0.0
2.700000 2.887500 0.0
2.742857 2.887500 0.0
2.785714 2.887500 0.0
2.828571 2.887500 0.0
2.871429 2.887500 0.0
2.914286 2.887500 0.0
2.957143 2.887500 0.0
3.000000 2.887500 0.0
1.500000 2.931250 0.0
1.542857 2.931250 0.0
1.585714 2.931250 0.0
1.628571 2.931250 0.0
1.671429 2.931250 0.0
1.714286 2.931250 0.0
1.757143 2.931250 0.0
1.800000 2.931250 0.0
1.842857 2.931250 0.0
1.885714 2.931250 0.0
1.928571 2.931250 0.0
1.971429 2.931250 0.0
2.014286 2.931250 0.0
2.057143 2.931250 0.0
2.100000 2.931250 0.0
2.142857 2.931250 0.0
2.185714 2.931250 0.0
2.228571 2.931250 0.0
2.271429 2.931250 0.0
2.314286 2.931250 0.0
2.357143 2.931250 0.0
2.400000 2.931250 0.0
2.442857 2.931250 0.0
2.485714 2.931250 0.0
2.528571 2.931250 0.0
2.571429 2.931250 0.0
2.614286 2.931250 0.0
2.657143 2.931250 0.0
2.700000 2.931250 0.0
2.742857 2.931250 0.0
2.785714 2.931250 0.0
2.828571 2.931250 0.0
2.871429 2.931250 0.0
2.914286 2.931250 0.0
2.957143 2.931250 0.0
3.000000 2.931250 0.0
1.500000 2.975000 0.0
1.542857 2.975000 0.0
1.585714 2.975000 0.0
1.628571 2.975000 0.0
1.671429 2.975000 0.0
1.714286 2.975000 0.0
1.757143 2.975000 0.0
1.800000 2.975000 0.0
1.842857 2.975000 0.0
1.885714 2.975000 0.0
1.928571 2.975000 0.0
1.971429 2.975000 0.0
2.014286 2.975000 0.0
2.057143 2.975000 0.0
2.100000 2.975000 0.0
2.142857 2.975000 0.0
2.185714 2.975000 0.0
2.228571 2.975000 0.0
2.271429 2.975000 0.0
2.314286 2.975000 0.0
2.357143 2.975000 0.0
2.400000 2.975000 0.0
2.442857 2.975000 0.0
2.485714 2.975000 0.0
2.528571 2.975000 0.0
2.571429 2.975000 0.0
2.614286 2.975000 0.0
2.657143 2.975000 0.0
2.700000 2.975000 0.0
2.742857 2.975000 0.0
2.785714 2.975000 0.0
2.828571 2.975000 0.0
2.871429 2.975000 0.0
2.914286 2.975000 0.0
2.957143 2.975000 0.0
3.000000 2.975000 0.0
1.500000 3.018750 0.0
1.542857 3.018750 0.0
1.585714 3.018750 0.0
1.628571 3.018750 0.0
1.671429 3.018750 0.0
1.714286 3.018750 0.0
1.757143 3.018750 0.0
1.800000 3.018750 0.0
1.842857 3.018750 0.0
1.885714 3.018750 0.0
1.928571 3.018750 0.0
1.971429 3.018750 0.0
2.014286 3.018750 0.0
2.057143 3.018750 0.0
2.100000 3.018750 0.0
2.142857 3.018750 0.0
2.185714 3.018750 0.0
2.228571 3.018750 0.0
2.271429 3.018750 0.0
2.314286 3.018750 0.0
2.357143 3.018750 0.0
2.400000 3.018750 0.0
2.442857 3.018750 0.0
2.485714 3.018750 0.0
2.528571 3.018750 0.0
2.571429 3.018750 0.0
2.614286 3.018750 0.0
2.657143 3.018750 0.0
2.700000 3.018750 0.0
2.742857 3.018750 0.0
2.785714 3.018750 0.0
2.828571 3.018750 0.0
2.871429 3.018750 0.0
2.914286 3.018750 0.0
2.957143 3.018750 0.0
3.000000 3.018750 0.0
1.500000 3.062500 0.0
1.542857 3.062500 0.0
1.585714 3.062500 0.0
1.628571 3.062500 0.0
1.671429 3.062500 0.0
1.714286 3.062500 0.0
1.757143 3.062500 0.0
1.800000 3.062500 0.0
1.842857 3.062500 0.0
1.885714 3.062500 0.0
1.928571 3.062500 0.0
1.971429 3.062500 0.0
2.014286 3.062500 0.0
2.057143 3.062500 0.0
2.100000 3.062500 0.0
2.142857 3.062500 0.0
2.185714 3.062500 0.0
2.228571 3.062500 0.0
2.271429 3.062500 0.0
2.314286 3.062500 0.0
2.357143 3.062500 0.0
2.400000 3.062500 0.0
2.442857 3.062500 0.0
2.485714 3.062500 0.0
2.528571 3.062500 0.0
2.571429 3.062500 0.0
2.614286 3.062500 0.0
2.657143 3.062500 0.0
2.700000 3.062500 0.0
2.742857 3.062500 0.0
2.785714 3.062500 0.0
2.828571 3.062500 0.0
2.871429 3.062500 0.0
2.914286 3.062500 0.0
2.957143 3.062500 0.0
3.000000 3.062500 0.0
1.500000 3.106250 0.0
1.542857 3.106250 0.0
1.585714 3.106250 0.0
1.628571 3.106250 0.0
1.671429 3.106250 0.0
1.714286 3.106250 0.0
1.757143 3.106250 0.0
1.800000 3.106250 0.0
1.842857 3.106250 0.0
1.885714 3.106250 0.0
1.928571 3.106250 0.0
1.971429 3.106250 0.0
2.014286 3.106250 0.0
2.057143 3.106250 0.0
2.100000 3.106250 0.0
2.142857 3.106250 0.0
2.185714 3.106250 0.0
2.228571 3.106250 0.0
2.271429 3.106250 0.0
2.314286 3.106250 0.0
2.357143 3.106250 0.0
2.400000 3.106250 0.0
2.442857 3.106250 0.0
2.485714 3.106250 0.0
2.528571 3.106250 0.0
2.571429 3.106250 0.0
2.614286 3.106250 0.0
2.657143 3.106250 0.0
2.700000 3.106250 0.0
2.742857 3.106250 0.0
2.785714 3.106250 0.0
2.828571 3.106250 0.0
2.871429 3.106250 0.0
2.914286 3.106250 0.0
2.957143 3.106250 0.0
3.000000 3.106250 0.0
1.500000 3.150000 0.0
1.542857 3.150000 0.0
1.585714 3.150000 0.0
1.628571 3.150000 0.0
1.671429 3.150000 0.0
1.714286 3.150000 0.0
1.757143 3.150000 0.0
1.800000 3.150000 0.0
1.842857 3.150000 0.0
1.885714 3.150000 0.0
1.928571 3.150000 0.0
1.971429 3.150000 0.0
2.014286 3.150000 0.0
2.057143 3.150000 0.0
2.100000 3.150000 0.0
2.142857 3.150000 0.0
2.185714 3.150000 0.0
2.228571 3.150000 0.0
2.271429 3.150000 0.0
2.314286 3.150000 0.0
2.357143 3.150000 0.0
2.400000 3.150000 0.0
2.442857 3.150000 0.0
2.485714 3.150000 0.0
2.528571 3.150000 0.0
2.571429 3.150000 0.0
2.614286 3.150000 0.0
2.657143 3.150000 0.0
2.700000 3.150000 0.0
2.742857 3.150000 0.0
2.785714 3.150000 0.0
2.828571 3.150000 0.0
2.871429 3.150000 0.0
2.914286 3.150000 0.0
2.957143 3.150000 0.0
3.000000 3.150000 0.0
1.500000 3.193750 0.0
1.542857 3.193750 0.0
1.585714 3.193750 0.0
1.628571 3.193750 0.0
1.671429 3.193750 0.0
1.714286 3.193750 0.0
1.757143 3.193750 0.0
1.800000 3.193750 0.0
1.842857 3.193750 0.0
1.885714 3.193750 0.0
1.928571 3.193750 0.0
1.971429 3.193750 0.0
2.014286 3.193750 0.0
2.057143 3.193750 0.0
2.100000 3.193750 0.0
2.142857 3.193750 0.0
2.185714 3.193750 0.0
2.228571 3.193750 0.0
2.271429 3.193750 0.0
2.314286 3.193750 0.0
2.357143 3.193750 0.0
2.400000 3.193750 0.0
2.442857 3.193750 0.0
2.485714 3.193750 0.0
2.528571 3.193750 0.0
2.571429 3.193750 0.0
2.614286 3.193750 0.0
2.657143 3.193750 0.0
2.700000 3.193750 0.0
2.742857 3.193750 0.0
2.785714 3.193750 0.0
2.828571 3.193750 0.0
2.871429 3.193750 0.0
2.914286 3.193750 0.0
2.957143 3.193750 0.0
3.000000 3.193750 0.0
1.500000 3.237500 0.0
1.542857 3.237500 0.0
1.585714 3.237500 0.0
1.628571 3.237500 0.0
1.671429 3.237500 0.0
1.714286 3.237500 0.0
1.757143 3.237500 0.0
1.800000 3.237500 0.0
1.842857 3.237500 0.0
1.885714 3.237500 0.0
1.928571 3.237500 0.0
1.971429 3.237500 0.0
2.014286 3.237500 0.0
2.057143 3.237500 0.0
2.100000 3.237500 0.0
2.142857 3.237500 0.0
2.185714 3.237500 0.0
2.228571 3.237500 0.0
2.271429 3.237500 0.0
2.314286 3.237500 0.0
2.357143 3.237500 0.0
2.400000 3.237500 0.0
2.442857 3.237500 0.0
2.485714 3.237500 0.0
2.528571 3.237500 0.0
2.571429 3.237500 0.0
2.614286 3.237500 0.0
2.657143 3.237500 0.0
2.700000 3.237500 0.0
2.742857 3.237500 0.0
2.785714 3.237500 0.0
2.828571 3.237500 0.0
2.871429 3.237500 0.0
2.914286 3.237500 0.0
2.957143 3.237500 0.0
3.000000 3.237500 0.0
1.500000 3.281250 0.0
1.542857 3.281250 0.0
1.585714 3.281250 0.0
1.628571 3.281250 0.0
1.671429 3.281250 0.0
1.714286 3.281250 0.0
1.757143 3.281250 0.0
1.800000 3.281250 0.0
1.842857 3.281250 0.0
1.885714 3.281250 0.0
1.928571 3.281250 0.0
1.971429 3.281250 0.0
2.014286 3.281250 0.0
2.057143 3.281250 0.0
2.100000 3.281250 0.0
2.142857 3.281250 0.0
2.185714 3.281250 0.0
2.228571 3.281250 0.0
2.271429 3.281250 0.0
2.314286 3.281250 0.0
2.357143 3.281250 0.0
2.400000 3.281250 0.0
2.442857 3.281250 0.0
2.485714 3.281250 0.0
2.528571 3.281250 0.0
2.571429 3.281250 0.0
2.614286 3.281250 0.0
2.657143 3.281250 0.0
2.700000 3.281250 0.0
2.742857 3.281250 0.0
2.785714 3.281250 0.0
2.828571 3.281250 0.0
2.871429 3.281250 0.0
2.914286 3.281250 0.0
2.957143 3.281250 0.0
3.000000 3.281250 0.0
1.500000 3.325000 0.0
1.542857 3.325000 0.0
1.585714 3.325000 0.0
1.628571 3.325000 0.0
1.671429 3.325000 0.0
1.714286 3.325000 0.0
1.757143 3.325000 0.0
1.800000 3.325000 0.0
1.842857 3.325000 0.0
1.885714 3.325000 0.0
1.928571 3.325000 0.0
1.971429 3.325000 0.0
2.014286 3.325000 0.0
2.057143 3.325000 0.0
2.100000 3.325000 0.0
2.142857 3.325000 0.0
2.185714 3.325000 0.0
2.228571 3.325000 0.0
2.271429 3.325000 0.0
2.314286 3.325000 0.0
2.357143 3.325000 0.0
2.400000 3.325000 0.0
2.442857 3.325000 0.0
2.485714 3.325000 0.0
2.528571 3.325000 0.0
2.571429 3.325000 0.0
2.614286 3.325000 0.0
2.657143 3.325000 0.0
2.700000 3.325000 0.0
2.742857 3.325000 0.0
2.785714 3.325000 0.0
2.828571 3.325000 0.0
2.871429 3.325000 0.0
2.914286 3.325000 0.0
2.957143 3.325000 0.0
3.000000 3.325000 0.0
1.500000 3.368750 0.0
1.542857 3.368750 0.0
1.585714 3.368750 0.0
1.628571 3.368750 0.0
1.671429 3.368750 0.0
1.714286 3.368750 0.0
1.757143 3.368750 0.0
1.800000 3.368750 0.0
1.842857 3.368750 0.0
1.885714 3.368750 0.0
1.928571 3.368750 0.0
1.971429 3.368750 0.0
2.014286 3.368750 0.0
2.057143 3.368750 0.0
2.100000 3.368750 0.0
2.142857 3.368750 0.0
2.185714 3.368750 0.0
2.228571 3.368750 0.0
2.271429 3.368750 0.0
2.314286 3.368750 0.0
2.357143 3.368750 0.0
2.400000 3.368750 0.0
2.442857 3.368750 0.0
2.485714 3.368750 0.0
2.528571 3.368750 0.0
2.571429 3.368750 0.0
2.614286 3.368750 0.0
2.657143 3.368750 0.0
2.700000 3.368750 0.0
2.742857 3.368750 0.0
2.785714 3.368750 0.0
2.828571 3.368750 0.0
2.871429 3.368750 0.0
2.914286 3.368750 0.0
2.957143 3.368750 0.0
3.000000 3.368750 0.0
1.500000 3.412500 0.0
1.542857 3.412500 0.0
1.585714 3.412500 0.0
1.628571 3.412500 0.0
1.671429 3.412500 0.0
1.714286 3.412500 0.0
1.757143 3.412500 0.0
1.800000 3.412500 0.0
1.842857 3.412500 0.0
1.885714 3.412500 0.0
1.928571 3.412500 0.0
1.971429 3.412500 0.0
2.014286 3.412500 0.0
2.057143 3.412500 0.0
2.100000 3.412500 0.0
2.142857 3.412500 0.0
2.185714 3.412500 0.0
2.228571 3.412500 0.0
2.271429 3.412500 0.0
2.314286 3.412500 0.0
2.357143 3.412500 0.0
2.400000 3.412500 0.0
2.442857 3.412500 0.0
2.485714 3.412500 0.0
2.528571 3.412500 0.0
2.571429 3.412500 0.0
2.614286 3.412500 0.0
2.657143 3.412500 0.0
2.700000 3.412500 0.0
2.742857 3.412500 0.0
2.785714 3.412500 0.0
2.828571 3.412500 0.0
2.871429 3.412500 0.0
2.914286 3.412500 0.0
2.957143 3.412500 0.0
3.000000 3.412500 0.0
1.500000 3.456250 0.0
1.542857 3.456250 0.0
1.585714 3.456250 0.0
1.628571 3.456250 0.0
1.671429 3.456250 0.0
1.714286 3.456250 0.0
1.757143 3.456250 0.0
1.800000 3.456250 0.0
1.842857 3.456250 0.0
1.885714 3.456250 0.0
1.928571 3.456250 0.0
1.971429 3.456250 0.0
2.014286 3.456250 0.0
2.057143 3.456250 0.0
2.100000 3.456250 0.0
2.142857 3.456250 0.0
2.185714 3.456250 0.0
2.228571 3.456250 0.0
2.271429 3.456250 0.0
2.314286 3.456250 0.0
2.357143 3.456250 0.0
2.400000 3.456250 0.0
2.442857 3.456250 0.0
2.485714 3.456250 0.0
2.528571 3.456250 0.0
2.571429 3.456250 0.0
2.614286 3.456250 0.0
2.657143 3.456250 0.0
2.700000 3.456250 0.0
2.742857 3.456250 0.0
2.785714 3.456250 0.0
2.828571 3.456250 0.0
2.871429 3.456250 0.0
2.914286 3.456250 0.0
2.957143 3.456250 0.0
3.000000 3.456250 0.0
1.500000 3.500000 0.0
1.542857 3.500000 0.0
1.585714 3.500000 0.0
1.628571 3.500000 0.0
1.671429 3.500000 0.0
1.714286 3.500000 0.0
1.757143 3.500000 0.0
1.800000 3.500000 0.0
1.842857 3.500000 0.0
1.885714 3.500000 0.0
1.928571 3.500000 0.0
1.971429 3.500000 0.0
2.014286 3.500000 0.0
2.057143 3.500000 0.0
2.100000 3.500000 0.0
2.142857 3.500000 0.0
2.185714 3.500000 0.0
2.228571 3.500000 0.0
2.271429 3.500000 0.0
2.314286 3.500000 0.0
2.357143 3.500000 0.0
2.400000 3.500000 0.0
2.442857 3.500000 0.0
2.485714 3.500000 0.0
2.528571 3.500000 0.0
2.571429 3.500000 0.0
2.614286 3.500000 0.0
2.657143 3.500000 0.0
2.700000 3.500000 0.0
2.742857 3.500000 0.0
2.785714 3.500000 0.0
2.828571 3.500000 0.0
2.871429 3.500000 0.0
2.914286 3.500000 0.0
2.957143 3.500000 0.0
3.000000 3.500000 0.0
</DataArray></Points>
<PointData>
<DataArray NumberOfComponents="1" format="ascii" type ="Float32" Name="phi">
-0.063915
-0.064233
-0.065324
-0.067136
-0.069558
-0.072419
-0.075782
-0.079544
-0.083323
-0.086947
-0.090330
-0.093434
-0.096263
-0.098827
-0.101145
-0.103269
-0.105289
-0.107381
-0.109726
-0.112160
-0.114377
-0.116306
-0.117965
-0.119359
-0.120527
-0.121523
-0.122371
-0.123090
-0.123699
-0.124217
-0.124659
-0.125039
-0.125367
-0.125642
-0.125846
-0.136864
-0.107635
-0.107949
-0.109027
-0.110817
-0.113215
-0.116054
-0.119388
-0.123127
-0.126908
-0.130547
-0.133953
-0.137079
-0.139927
-0.142506
-0.144836
-0.146968
-0.148991
-0.151077
-0.153411
-0.155844
-0.158073
-0.160017
-0.161686
-0.163088
-0.164263
-0.165263
-0.166113
-0.166834
-0.167445
-0.167964
-0.168407
-0.168787
-0.169116
-0.169391
-0.169595
-0.169676
-0.151388
-0.151696
-0.152756
-0.154518
-0.156887
-0.159699
-0.162999
-0.166713
-0.170493
-0.174146
-0.177575
-0.180723
-0.183589
-0.186184
-0.188527
-0.190666
-0.192693
-0.194775
-0.197098
-0.199529
-0.201769
-0.203728
-0.205408
-0.206818
-0.207998
-0.209002
-0.209855
-0.210578
-0.211191
-0.211711
-0.212155
-0.212536
-0.212864
-0.213140
-0.213345
-0.213426
-0.195144
-0.195447
-0.196489
-0.198225
-0.200564
-0.203349
-0.206615
-0.210302
-0.214080
-0.217745
-0.221195
-0.224366
-0.227251
-0.229861
-0.232217
-0.234364
-0.236396
-0.238474
-0.240786
-0.243214
-0.245466
-0.247439
-0.249129
-0.250547
-0.251733
-0.252741
-0.253597
-0.254322
-0.254937
-0.255458
-0.255902
-0.256284
-0.256613
-0.256889
-0.257094
-0.257176
-0.238903
-0.239201
-0.240226
-0.241935
-0.244245
-0.247003
-0.250235
-0.253895
-0.257668
-0.261345
-0.264815
-0.268008
-0.270913
-0.273539
-0.275907
-0.278062
-0.280099
-0.282173
-0.284475
-0.286900
-0.289161
-0.291149
-0.292851
-0.294277
-0.295468
-0.296480
-0.297339
-0.298066
-0.298682
-0.299204
-0.299650
-0.300032
-0.300362
-0.300638
-0.300844
-0.300925
-0.282665
-0.282958
-0.283966
-0.285650
-0.287932
-0.290662
-0.293859
-0.297492
-0.301260
-0.304945
-0.308435
-0.311650
-0.314574
-0.317216
-0.319597
-0.321761
-0.323802
-0.325874
-0.328165
-0.330586
-0.332857
-0.334859
-0.336572
-0.338007
-0.339204
-0.340219
-0.341081
-0.341810
-0.342428
-0.342951
-0.343397
-0.343780
-0.344110
-0.344387
-0.344593
-0.344675
-0.326430
-0.326718
-0.327710
-0.329369
-0.331622
-0.334324
-0.337487
-0.341092
-0.344853
-0.348545
-0.352053
-0.355291
-0.358235
-0.360893
-0.363288
-0.365460
-0.367506
-0.369575
-0.371856
-0.374272
-0.376552
-0.378569
-0.380293
-0.381736
-0.382939
-0.383958
-0.384823
-0.385554
-0.386173
-0.386698
-0.387144
-0.387528
-0.387859
-0.388136
-0.388343
-0.388424
-0.370198
-0.370481
-0.371457
-0.373092
-0.375316
-0.377991
-0.381119
-0.384695
-0.388448
-0.392145
-0.395671
-0.398932
-0.401895
-0.404570
-0.406978
-0.409160
-0.411211
-0.413278
-0.415549
-0.417959
-0.420248
-0.422279
-0.424015
-0.425466
-0.426675
-0.427698
-0.428565
-0.429299
-0.429919
-0.430444
-0.430892
-0.431276
-0.431607
-0.431885
-0.432092
-0.432174
-0.413967
-0.414246
-0.415207
-0.416817
-0.419013
-0.421661
-0.424755
-0.428302
-0.432045
-0.435746
-0.439288
-0.442571
-0.445556
-0.448248
-0.450669
-0.452860
-0.454916
-0.456981
-0.459242
-0.461646
-0.463942
-0.465988
-0.467736
-0.469195
-0.470410
-0.471437
-0.472307
-0.473043
-0.473665
-0.474191
-0.474640
-0.475024
-0.475356
-0.475634
-0.475841
-0.475923
-0.457739
-0.458013
-0.458959
-0.460545
-0.462714
-0.465335
-0.468395
-0.471912
-0.475644
-0.479348
-0.482906
-0.486210
-0.489215
-0.491925
-0.494360
-0.496560
-0.498621
-0.500685
-0.502936
-0.505334
-0.507637
-0.509697
-0.511457
-0.512925
-0.514146
-0.515177
-0.516049
-0.516787
-0.517410
-0.517938
-0.518387
-0.518772
-0.519104
-0.519383
-0.519590
-0.519673
-0.501513
-0.501782
-0.502713
-0.504277
-0.506419
-0.509013
-0.512039
-0.515525
-0.519244
-0.522950
-0.526522
-0.529848
-0.532875
-0.535602
-0.538051
-0.540261
-0.542326
-0.544389
-0.546631
-0.549022
-0.551331
-0.553405
-0.555178
-0.556655
-0.557881
-0.558916
-0.559792
-0.560532
-0.561156
-0.561685
-0.562135
-0.562520
-0.562853
-0.563132
-0.563340
-0.563422
-0.545288
-0.545553
-0.546470
-0.548011
-0.550126
-0.552693
-0.555686
-0.559141
-0.562848
-0.566555
-0.570139
-0.573486
-0.576534
-0.579279
-0.581742
-0.583961
-0.586030
-0.588092
-0.590327
-0.592711
-0.595026
-0.597113
-0.598899
-0.600385
-0.601617
-0.602656
-0.603534
-0.604276
-0.604902
-0.605432
-0.605882
-0.606269
-0.606602
-0.606881
-0.607089
-0.607172
-0.589064
-0.589326
-0.590229
-0.591747
-0.593836
-0.596377
-0.599337
-0.602761
-0.606454
-0.610161
-0.613754
-0.617122
-0.620192
-0.622955
-0.625433
-0.627662
-0.629735
-0.631796
-0.634024
-0.636401
-0.638720
-0.640821
-0.642620
-0.644115
-0.645353
-0.646396
-0.647277
-0.648021
-0.648648
-0.649179
-0.649630
-0.650017
-0.650350
-0.650630
-0.650838
-0.650921
-0.632842
-0.633099
-0.633989
-0.635486
-0.637549
-0.640064
-0.642992
-0.646384
-0.650063
-0.653768
-0.657370
-0.660757
-0.663850
-0.666632
-0.669124
-0.671364
-0.673441
-0.675501
-0.677721
-0.680090
-0.682414
-0.684528
-0.686341
-0.687845
-0.689089
-0.690136
-0.691020
-0.691766
-0.692395
-0.692926
-0.693378
-0.693765
-0.694099
-0.694379
-0.694587
-0.694670
-0.676621
-0.676875
-0.677751
-0.679227
-0.681265
-0.683753
-0.686650
-0.690011
-0.693673
-0.697376
-0.700986
-0.704392
-0.707507
-0.710308
-0.712815
-0.715065
-0.717147
-0.719206
-0.721419
-0.723781
-0.726108
-0.728235
-0.730061
-0.731575
-0.732826
-0.733876
-0.734763
-0.735511
-0.736141
-0.736673
-0.737126
-0.737514
-0.737847
-0.738128
-0.738337
-0.738420
-0.720401
-0.720651
-0.721515
-0.722970
-0.724982
-0.727445
-0.730312
-0.733641
-0.737286
-0.740986
-0.744602
-0.748026
-0.751163
-0.753983
-0.756506
-0.758767
-0.760853
-0.762912
-0.765118
-0.767472
-0.769802
-0.771942
-0.773781
-0.775305
-0.776562
-0.777617
-0.778506
-0.779256
-0.779887
-0.780421
-0.780874
-0.781262
-0.781596
-0.781877
-0.782086
-0.782169
-0.764183
-0.764429
-0.765280
-0.766716
-0.768703
-0.771139
-0.773977
-0.777274
-0.780900
-0.784597
-0.788219
-0.791659
-0.794818
-0.797659
-0.800197
-0.802469
-0.804560
-0.806619
-0.808817
-0.811164
-0.813496
-0.815647
-0.817501
-0.819035
-0.820298
-0.821357
-0.822249
-0.823001
-0.823634
-0.824168
-0.824622
-0.825010
-0.825345
-0.825626
-0.825835
-0.825918
-0.807965
-0.808208
-0.809047
-0.810463
-0.812425
-0.814836
-0.817646
-0.820911
-0.824517
-0.828209
-0.831835
-0.835291
-0.838472
-0.841333
-0.843888
-0.846171
-0.848267
-0.850327
-0.852518
-0.854856
-0.857190
-0.859353
-0.861221
-0.862765
-0.864035
-0.865098
-0.865993
-0.866746
-0.867380
-0.867916
-0.868370
-0.868759
-0.869094
-0.869375
-0.869584
-0.869668
-0.851747
-0.851987
-0.852815
-0.854212
-0.856150
-0.858536
-0.861317
-0.864551
-0.868136
-0.871822
-0.875452
-0.878921
-0.882124
-0.885007
-0.887578
-0.889873
-0.891975
-0.894035
-0.896219
-0.898550
-0.900885
-0.903058
-0.904940
-0.906495
-0.907771
-0.908838
-0.909736
-0.910491
-0.911127
-0.911663
-0.912118
-0.912507
-0.912842
-0.913124
-0.913333
-0.913417
-0.895531
-0.895768
-0.896584
-0.897962
-0.899877
-0.902237
-0.904991
-0.908193
-0.911757
-0.915435
-0.919068
-0.922551
-0.925776
-0.928680
-0.931269
-0.933575
-0.935683
-0.937743
-0.939920
-0.942245
-0.944581
-0.946763
-0.948659
-0.950225
-0.951508
-0.952579
-0.953480
-0.954237
-0.954874
-0.955411
-0.955866
-0.956256
-0.956591
-0.956873
-0.957083
-0.957166
-0.917423
-0.917658
-0.918469
-0.919838
-0.921740
-0.924089
-0.926829
-0.930015
-0.933568
-0.937242
-0.940876
-0.944367
-0.947602
-0.950517
-0.953114
-0.955426
-0.957537
-0.959597
-0.961771
-0.964092
-0.966429
-0.968615
-0.970519
-0.972090
-0.973376
-0.974449
-0.975351
-0.976110
-0.976747
-0.977285
-0.977740
-0.978130
-0.978466
-0.978747
-0.978957
-0.979041
</DataArray>
<DataArray NumberOfComponents="1" format="ascii" type ="Float32" Name="u">
-0.000077
0.001322
0.002707
0.004158
0.005565
0.006703
0.007609
0.008306
0.008819
0.009175
0.009402
0.009525
0.009566
0.009546
0.009491
0.009436
0.009441
0.009599
0.009989
0.010356
0.010584
0.010701
0.010744
0.010739
0.010703
0.010649
0.010586
0.010520
0.010456
0.010396
0.010344
0.010301
0.010267
0.010244
0.010231
0.010231
-0.000044
0.001298
0.002627
0.003940
0.005158
0.006198
0.007052
0.007727
0.008243
0.008623
0.008891
0.009071
0.009185
0.009257
0.009313
0.009386
0.009513
0.009725
0.010010
0.010268
0.010458
0.010580
0.010647
0.010673
0.010671
0.010648
0.010614
0.010573
0.010530
0.010487
0.010449
0.010415
0.010387
0.010365
0.010348
0.010348
-0.000036
0.001214
0.002443
0.003625
0.004714
0.005668
0.006473
0.007132
0.007657
0.008068
0.008383
0.008623
0.008809
0.008960
0.009100
0.009248
0.009423
0.009632
0.009858
0.010062
0.010227
0.010348
0.010430
0.010478
0.010501
0.010505
0.010495
0.010477
0.010454
0.010428
0.010403
0.010380
0.010359
0.010341
0.010327
0.010327
-0.000036
0.001112
0.002238
0.003312
0.004302
0.005185
0.005947
0.006589
0.007121
0.007555
0.007908
0.008196
0.008436
0.008644
0.008836
0.009025
0.009221
0.009424
0.009623
0.009804
0.009957
0.010078
0.010170
0.010234
0.010277
0.010301
0.010312
0.010313
0.010307
0.010297
0.010284
0.010270
0.010257
0.010244
0.010234
0.010234
-0.000037
0.001015
0.002044
0.003026
0.003937
0.004759
0.005483
0.006109
0.006642
0.007092
0.007472
0.007794
0.008073
0.008319
0.008546
0.008761
0.008969
0.009170
0.009360
0.009532
0.009681
0.009805
0.009905
0.009982
0.010039
0.010080
0.010108
0.010125
0.010133
0.010136
0.010134
0.010129
0.010122
0.010114
0.010107
0.010107
-0.000036
0.000927
0.001871
0.002775
0.003619
0.004390
0.005080
0.005688
0.006219
0.006678
0.007076
0.007423
0.007729
0.008002
0.008252
0.008485
0.008703
0.008907
0.009096
0.009266
0.009416
0.009545
0.009652
0.009739
0.009809
0.009863
0.009904
0.009933
0.009954
0.009967
0.009974
0.009977
0.009976
0.009972
0.009966
0.009966
-0.000035
0.000851
0.001722
0.002558
0.003345
0.004071
0.004731
0.005322
0.005848
0.006312
0.006722
0.007085
0.007409
0.007702
0.007969
0.008214
0.008442
0.008651
0.008843
0.009015
0.009169
0.009302
0.009417
0.009513
0.009593
0.009658
0.009709
0.009749
0.009779
0.009801
0.009816
0.009825
0.009828
0.009827
0.009822
0.009822
-0.000033
0.000787
0.001594
0.002373
0.003110
0.003798
0.004431
0.005005
0.005523
0.005988
0.006405
0.006780
0.007117
0.007423
0.007703
0.007959
0.008194
0.008409
0.008606
0.008783
0.008941
0.009080
0.009201
0.009305
0.009393
0.009467
0.009527
0.009576
0.009614
0.009643
0.009664
0.009677
0.009684
0.009686
0.009682
0.009682
-0.000031
0.000733
0.001485
0.002215
0.002911
0.003565
0.004172
0.004731
0.005241
0.005704
0.006124
0.006506
0.006852
0.007168
0.007457
0.007722
0.007964
0.008185
0.008387
0.008569
0.008732
0.008877
0.009005
0.009115
0.009211
0.009292
0.009360
0.009415
0.009460
0.009495
0.009521
0.009538
0.009548
0.009551
0.009548
0.009548
-0.000029
0.000687
0.001394
0.002081
0.002741
0.003365
0.003950
0.004494
0.004995
0.005455
0.005877
0.006262
0.006615
0.006938
0.007234
0.007505
0.007753
0.007981
0.008187
0.008374
0.008543
0.008693
0.008827
0.008943
0.009045
0.009132
0.009206
0.009268
0.009318
0.009357
0.009387
0.009407
0.009419
0.009424
0.009421
0.009421
-0.000026
0.000649
0.001317
0.001968
0.002597
0.003196
0.003761
0.004290
0.004782
0.005238
0.005659
0.006046
0.006403
0.006731
0.007032
0.007309
0.007563
0.007795
0.008007
0.008199
0.008372
0.008528
0.008666
0.008788
0.008895
0.008988
0.009067
0.009133
0.009188
0.009231
0.009264
0.009287
0.009300
0.009306
0.009304
0.009304
-0.000025
0.000617
0.001252
0.001873
0.002475
0.003052
0.003599
0.004116
0.004599
0.005050
0.005469
0.005857
0.006216
0.006547
0.006853
0.007134
0.007392
0.007629
0.007845
0.008042
0.008219
0.008379
0.008522
0.008649
0.008761
0.008857
0.008941
0.009011
0.009069
0.009115
0.009151
0.009176
0.009191
0.009197
0.009195
0.009195
-0.000023
0.000590
0.001198
0.001794
0.002373
0.002930
0.003462
0.003966
0.004442
0.004887
0.005304
0.005691
0.006051
0.006385
0.006693
0.006978
0.007240
0.007480
0.007700
0.007900
0.008082
0.008246
0.008392
0.008523
0.008638
0.008739
0.008825
0.008899
0.008960
0.009009
0.009046
0.009072
0.009088
0.009095
0.009093
0.009093
-0.000021
0.000567
0.001152
0.001726
0.002285
0.002826
0.003344
0.003837
0.004305
0.004745
0.005158
0.005544
0.005904
0.006239
0.006549
0.006836
0.007100
0.007343
0.007566
0.007769
0.007954
0.008120
0.008270
0.008404
0.008522
0.008625
0.008714
0.008790
0.008853
0.008904
0.008943
0.008970
0.008987
0.008994
0.008992
0.008992
-0.000020
0.000548
0.001111
0.001666
0.002208
0.002733
0.003238
0.003720
0.004179
0.004613
0.005022
0.005405
0.005763
0.006097
0.006407
0.006694
0.006960
0.007204
0.007428
0.007633
0.007819
0.007988
0.008139
0.008275
0.008394
0.008500
0.008590
0.008668
0.008732
0.008784
0.008823
0.008851
0.008868
0.008875
0.008874
0.008874
-0.000019
0.000528
0.001071
0.001606
0.002129
0.002638
0.003128
0.003598
0.004046
0.004471
0.004872
0.005249
0.005602
0.005932
0.006239
0.006524
0.006787
0.007030
0.007253
0.007457
0.007642
0.007810
0.007962
0.008097
0.008217
0.008322
0.008413
0.008490
0.008555
0.008606
0.008646
0.008673
0.008690
0.008697
0.008695
0.008695
-0.000018
0.000502
0.001020
0.001530
0.002030
0.002516
0.002985
0.003436
0.003866
0.004275
0.004662
0.005026
0.005368