<VTKFile type="StructuredGrid" version="0.1" byte_order="LittleEndian">
<StructuredGrid WholeExtent="1 71 1 81 0 0">
<Piece Extent="1 36 41 61 0 0">
<PointData></PointData>
<CellData></CellData>
<Points>
<DataArray NumberOfComponents="3" format="ascii" type ="Float32" Name="mesh">
0.000000 1.750000 0.0
0.042857 1.750000 0.0
0.085714 1.750000 0.0
0.128571 1.750000 0.0
0.171429 1.750000 0.0
0.214286 1.750000 0.0
0.257143 1.750000 0.0
0.300000 1.750000 0.0
0.342857 1.750000 0.0
0.385714 1.750000 0.0
0.428571 1.750000 0.0
0.471429 1.750000 0.0
0.514286 1.750000 0.0
0.557143 1.750000 0.0
0.600000 1.750000 0.0
0.642857 1.750000 0.0
0.685714 1.750000 0.0
0.728571 1.750000 0.0
0.771429 1.750000 0.0
0.814286 1.750000 0.0
0.857143 1.750000 0.0
0.900000 1.750000 0.0
0.942857 1.750000 0.0
0.985714 1.750000 0.0
1.028571 1.750000 0.0
1.071429 1.750000 0.0
1.114286 1.750000 0.0
1.157143 1.750000 0.0
1.200000 1.750000 0.0
1.242857 1.750000 0.0
1.285714 1.750000 0.0
1.328571 1.750000 0.0
1.371429 1.750000 0.0
1.414286 1.750000 0.0
1.457143 1.750000 0.0
1.500000 1.750000 0.0
0.000000 1.793750 0.0
0.042857 1.793750 0.0
0.085714 1.793750 0.0
0.128571 1.793750 0.0
0.171429 1.793750 0.0
0.214286 1.793750 0.0
0.257143 1.793750 0.0
0.300000 1.793750 0.0
0.342857 1.793750 0.0
0.385714 1.793750 0.0
0.428571 1.793750 0.0
0.471429 1.793750 0.0
0.514286 1.793750 0.0
0.557143 1.793750 0.0
0.600000 1.793750 0.0
0.642857 1.793750 0.0
0.685714 1.793750 0.0
0.728571 1.793750 0.0
0.771429 1.793750 0.0
0.814286 1.793750 0.0
0.857143 1.793750 0.0
0.900000 1.793750 0.0
0.942857 1.793750 0.0
0.985714 1.793750 0.0
1.028571 1.793750 0.0
1.071429 1.793750 0.0
1.114286 1.793750 0.0
1.157143 1.793750 0.0
1.200000 1.793750 0.0
1.242857 1.793750 0.0
1.285714 1.793750 0.0
1.328571 1.793750 0.0
1.371429 1.793750 0.0
1.414286 1.793750 0.0
1.457143 1.793750 0.0
1.500000 1.793750 0.0
0.000000 1.837500 0.0
0.042857 1.837500 0.0
0.085714 1.837500 0.0
0.128571 1.837500 0.0
0.171429 1.837500 0.0
0.214286 1.837500 0.0
0.257143 1.837500 0.0
0.300000 1.837500 0.0
0.342857 1.837500 0.0
0.385714 1.837500 0.0
0.428571 1.837500 0.0
0.471429 1.837500 0.0
0.514286 1.837500 0.0
0.557143 1.837500 0.0
0.600000 1.837500 0.0
0.642857 1.837500 0.0
0.685714 1.837500 0.0
0.728571 1.837500 0.0
0.771429 1.837500 0.0
0.814286 1.837500 0.0
0.857143 1.837500 0.0
0.900000 1.837500 0.0
0.942857 1.837500 0.0
0.985714 1.837500 0.0
1.028571 1.837500 0.0
1.071429 1.837500 0.0
1.114286 1.837500 0.0
1.157143 1.837500 0.0
1.200000 1.837500 0.0
1.242857 1.837500 0.0
1.285714 1.837500 0.0
1.328571 1.837500 0.0
1.371429 1.837500 0.0
1.414286 1.837500 0.0
1.457143 1.837500 0.0
1.500000 1.837500 0.0
0.000000 1.881250 0.0
0.042857 1.881250 0.0
0.085714 1.881250 0.0
0.128571 1.881250 0.0
0.171429 1.881250 0.0
0.214286 1.881250 0.0
0.257143 1.881250 0.0
0.300000 1.881250 0.0
0.342857 1.881250 0.0
0.385714 1.881250 0.0
0.428571 1.881250 0.0
0.471429 1.881250 0.0
0.514286 1.881250 0.0
0.557143 1.881250 0.0
0.600000 1.881250 0.0
0.642857 1.881250 0.0
0.685714 1.881250 0.0
0.728571 1.881250 0.0
0.771429 1.881250 0.0
0.814286 1.881250 0.0
0.857143 1.881250 0.0
0.900000 1.881250 0.0
0.942857 1.881250 0.0
0.985714 1.881250 0.0
1.028571 1.881250 0.0
1.071429 1.881250 0.0
1.114286 1.881250 0.0
1.157143 1.881250 0.0
1.200000 1.881250 0.0
1.242857 1.881250 0.0
1.285714 1.881250 0.0
1.328571 1.881250 0.0
1.371429 1.881250 0.0
1.414286 1.881250 0.0
1.457143 1.881250 0.0
1.500000 1.881250 0.0
0.000000 1.925000 0.0
0.042857 1.925000 0.0
0.085714 1.925000 0.0
0.128571 1.925000 0.0
0.171429 1.925000 0.0
0.214286 1.925000 0.0
0.257143 1.925000 0.0
0.300000 1.925000 0.0
0.342857 1.925000 0.0
0.385714 1.925000 0.0
0.428571 1.925000 0.0
0.471429 1.925000 0.0
0.514286 1.925000 0.0
0.557143 1.925000 0.0
0.600000 1.925000 0.0
0.642857 1.925000 0.0
0.685714 1.925000 0.0
0.728571 1.925000 0.0
0.771429 1.925000 0.0
0.814286 1.925000 0.0
0.857143 1.925000 0.0
0.900000 1.925000 0.0
0.942857 1.925000 0.0
0.985714 1.925000 0.0
1.028571 1.925000 0.0
1.071429 1.925000 0.0
1.114286 1.925000 0.0
1.157143 1.925000 0.0
1.200000 1.925000 0.0
1.242857 1.925000 0.0
1.285714 1.925000 0.0
1.328571 1.925000 0.0
1.371429 1.925000 0.0
1.414286 1.925000 0.0
1.457143 1.925000 0.0
1.500000 1.925000 0.0
0.000000 1.968750 0.0
0.042857 1.968750 0.0
0.085714 1.968750 0.0
0.128571 1.968750 0.0
0.171429 1.968750 0.0
0.214286 1.968750 0.0
0.257143 1.968750 0.0
0.300000 1.968750 0.0
0.342857 1.968750 0.0
0.385714 1.968750 0.0
0.428571 1.968750 0.0
0.471429 1.968750 0.0
0.514286 1.968750 0.0
0.557143 1.968750 0.0
0.600000 1.968750 0.0
0.642857 1.968750 0.0
0.685714 1.968750 0.0
0.728571 1.968750 0.0
0.771429 1.968750 0.0
0.814286 1.968750 0.0
0.857143 1.968750 0.0
0.900000 1.968750 0.0
0.942857 1.968750 0.0
0.985714 1.968750 0.0
1.028571 1.968750 0.0
1.071429 1.968750 0.0
1.114286 1.968750 0.0
1.157143 1.968750 0.0
1.200000 1.968750 0.0
1.242857 1.968750 0.0
1.285714 1.968750 0.0
1.328571 1.968750 0.0
1.371429 1.968750 0.0
1.414286 1.968750 0.0
1.457143 1.968750 0.0
1.500000 1.968750 0.0
0.000000 2.012500 0.0
0.042857 2.012500 0.0
0.085714 2.012500 0.0
0.128571 2.012500 0.0
0.171429 2.012500 0.0
0.214286 2.012500 0.0
0.257143 2.012500 0.0
0.300000 2.012500 0.0
0.342857 2.012500 0.0
0.385714 2.012500 0.0
0.428571 2.012500 0.0
0.471429 2.012500 0.0
0.514286 2.012500 0.0
0.557143 2.012500 0.0
0.600000 2.012500 0.0
0.642857 2.012500 0.0
0.685714 2.012500 0.0
0.728571 2.012500 0.0
0.771429 2.012500 0.0
0.814286 2.012500 0.0
0.857143 2.012500 0.0
0.900000 2.012500 0.0
0.942857 2.012500 0.0
0.985714 2.012500 0.0
1.028571 2.012500 0.0
1.071429 2.012500 0.0
1.114286 2.012500 0.0
1.157143 2.012500 0.0
1.200000 2.012500 0.0
1.242857 2.012500 0.0
1.285714 2.012500 0.0
1.328571 2.012500 0.0
1.371429 2.012500 0.0
1.414286 2.012500 0.0
1.457143 2.012500 0.0
1.500000 2.012500 0.0
0.000000 2.056250 0.0
0.042857 2.056250 0.0
0.085714 2.056250 0.0
0.128571 2.056250 0.0
0.171429 2.056250 0.0
0.214286 2.056250 0.0
0.257143 2.056250 0.0
0.300000 2.056250 0.0
0.342857 2.056250 0.0
0.385714 2.056250 0.0
0.428571 2.056250 0.0
0.471429 2.056250 0.0
0.514286 2.056250 0.0
0.557143 2.056250 0.0
0.600000 2.056250 0.0
0.642857 2.056250 0.0
0.685714 2.056250 0.0
0.728571 2.056250 0.0
0.771429 2.056250 0.0
0.814286 2.056250 0.0
0.857143 2.056250 0.0
0.900000 2.056250 0.0
0.942857 2.056250 0.0
0.985714 2.056250 0.0
1.028571 2.056250 0.0
1.071429 2.056250 0.0
1.114286 2.056250 0.0
1.157143 2.056250 0.0
1.200000 2.056250 0.0
1.242857 2.056250 0.0
1.285714 2.056250 0.0
1.328571 2.056250 0.0
1.371429 2.056250 0.0
1.414286 2.056250 0.0
1.457143 2.056250 0.0
1.500000 2.056250 0.0
0.000000 2.100000 0.0
0.042857 2.100000 0.0
0.085714 2.100000 0.0
0.128571 2.100000 0.0
0.171429 2.100000 0.0
0.214286 2.100000 0.0
0.257143 2.100000 0.0
0.300000 2.100000 0.0
0.342857 2.100000 0.0
0.385714 2.100000 0.0
0.428571 2.100000 0.0
0.471429 2.100000 0.0
0.514286 2.100000 0.0
0.557143 2.100000 0.0
0.600000 2.100000 0.0
0.642857 2.100000 0.0
0.685714 2.100000 0.0
0.728571 2.100000 0.0
0.771429 2.100000 0.0
0.814286 2.100000 0.0
0.857143 2.100000 0.0
0.900000 2.100000 0.0
0.942857 2.100000 0.0
0.985714 2.100000 0.0
1.028571 2.100000 0.0
1.071429 2.100000 0.0
1.114286 2.100000 0.0
1.157143 2.100000 0.0
1.200000 2.100000 0.0
1.242857 2.100000 0.0
1.285714 2.100000 0.0
1.328571 2.100000 0.0
1.371429 2.100000 0.0
1.414286 2.100000 0.0
1.457143 2.100000 0.0
1.500000 2.100000 0.0
0.000000 2.143750 0.0
0.042857 2.143750 0.0
0.085714 2.143750 0.0
0.128571 2.143750 0.0
0.171429 2.143750 0.0
0.214286 2.143750 0.0
0.257143 2.143750 0.0
0.300000 2.143750 0.0
0.342857 2.143750 0.0
0.385714 2.143750 0.0
0.428571 2.143750 0.0
0.471429 2.143750 0.0
0.514286 2.143750 0.0
0.557143 2.143750 0.0
0.600000 2.143750 0.0
0.642857 2.143750 0.0
0.685714 2.143750 0.0
0.728571 2.143750 0.0
0.771429 2.143750 0.0
0.814286 2.143750 0.0
0.857143 2.143750 0.0
0.900000 2.143750 0.0
0.942857 2.143750 0.0
0.985714 2.143750 0.0
1.028571 2.143750 0.0
1.071429 2.143750 0.0
1.114286 2.143750 0.0
1.157143 2.143750 0.0
1.200000 2.143750 0.0
1.242857 2.143750 0.0
1.285714 2.143750 0.0
1.328571 2.143750 0.0
1.371429 2.143750 0.0
1.414286 2.143750 0.0
1.457143 2.143750 0.0
1.500000 2.143750 0.0
0.000000 2.187500 0.0
0.042857 2.187500 0.0
0.085714 2.187500 0.0
0.128571 2.187500 0.0
0.171429 2.187500 0.0
0.214286 2.187500 0.0
0.257143 2.187500 0.0
0.300000 2.187500 0.0
0.342857 2.187500 0.0
0.385714 2.187500 0.0
0.428571 2.187500 0.0
0.471429 2.187500 0.0
0.514286 2.187500 0.0
0.557143 2.187500 0.0
0.600000 2.187500 0.0
0.642857 2.187500 0.0
0.685714 2.187500 0.0
0.728571 2.187500 0.0
0.771429 2.187500 0.0
0.814286 2.187500 0.0
0.857143 2.187500 0.0
0.900000 2.187500 0.0
0.942857 2.187500 0.0
0.985714 2.187500 0.0
1.028571 2.187500 0.0
1.071429 2.187500 0.0
1.114286 2.187500 0.0
1.157143 2.187500 0.0
1.200000 2.187500 0.0
1.242857 2.187500 0.0
1.285714 2.187500 0.0
1.328571 2.187500 0.0
1.371429 2.187500 0.0
1.414286 2.187500 0.0
1.457143 2.187500 0.0
1.500000 2.187500 0.0
0.000000 2.231250 0.0
0.042857 2.231250 0.0
0.085714 2.231250 0.0
0.128571 2.231250 0.0
0.171429 2.231250 0.0
0.214286 2.231250 0.0
0.257143 2.231250 0.0
0.300000 2.231250 0.0
0.342857 2.231250 0.0
0.385714 2.231250 0.0
0.428571 2.231250 0.0
0.471429 2.231250 0.0
0.514286 2.231250 0.0
0.557143 2.231250 0.0
0.600000 2.231250 0.0
0.642857 2.231250 0.0
0.685714 2.231250 0.0
0.728571 2.231250 0.0
0.771429 2.231250 0.0
0.814286 2.231250 0.0
0.857143 2.231250 0.0
0.900000 2.231250 0.0
0.942857 2.231250 0.0
0.985714 2.231250 0.0
1.028571 2.231250 0.0
1.071429 2.231250 0.0
1.114286 2.231250 0.0
1.157143 2.231250 0.0
1.200000 2.231250 0.0
1.242857 2.231250 0.0
1.285714 2.231250 0.0
1.328571 2.231250 0.0
1.371429 2.231250 0.0
1.414286 2.231250 0.0
1.457143 2.231250 0.0
1.500000 2.231250 0.0
0.000000 2.275000 0.0
0.042857 2.275000 0.0
0.085714 2.275000 0.0
0.128571 2.275000 0.0
0.171429 2.275000 0.0
0.214286 2.275000 0.0
0.257143 2.275000 0.0
0.300000 2.275000 0.0
0.342857 2.275000 0.0
0.385714 2.275000 0.0
0.428571 2.275000 0.0
0.471429 2.275000 0.0
0.514286 2.275000 0.0
0.557143 2.275000 0.0
0.600000 2.275000 0.0
0.642857 2.275000 0.0
0.685714 2.275000 0.0
0.728571 2.275000 0.0
0.771429 2.275000 0.0
0.814286 2.275000 0.0
0.857143 2.275000 0.0
0.900000 2.275000 0.0
0.942857 2.275000 0.0
0.985714 2.275000 0.0
1.028571 2.275000 0.0
1.071429 2.275000 0.0
1.114286 2.275000 0.0
1.157143 2.275000 0.0
1.200000 2.275000 0.0
1.242857 2.275000 0.0
1.285714 2.275000 0.0
1.328571 2.275000 0.0
1.371429 2.275000 0.0
1.414286 2.275000 0.0
1.457143 2.275000 0.0
1.500000 2.275000 0.0
0.000000 2.318750 0.0
0.042857 2.318750 0.0
0.085714 2.318750 0.0
0.128571 2.318750 0.0
0.171429 2.318750 0.0
0.214286 2.318750 0.0
0.257143 2.318750 0.0
0.300000 2.318750 0.0
0.342857 2.318750 0.0
0.385714 2.318750 0.0
0.428571 2.318750 0.0
0.471429 2.318750 0.0
0.514286 2.318750 0.0
0.557143 2.318750 0.0
0.600000 2.318750 0.0
0.642857 2.318750 0.0
0.685714 2.318750 0.0
0.728571 2.318750 0.0
0.771429 2.318750 0.0
0.814286 2.318750 0.0
0.857143 2.318750 0.0
0.900000 2.318750 0.0
0.942857 2.318750 0.0
0.985714 2.318750 0.0
1.028571 2.318750 0.0
1.071429 2.318750 0.0
1.114286 2.318750 0.0
1.157143 2.318750 0.0
1.200000 2.318750 0.0
1.242857 2.318750 0.0
1.285714 2.318750 0.0
1.328571 2.318750 0.0
1.371429 2.318750 0.0
1.414286 2.318750 0.0
1.457143 2.318750 0.0
1.500000 2.318750 0.0
0.000000 2.362500 0.0
0.042857 2.362500 0.0
0.085714 2.362500 0.0
0.128571 2.362500 0.0
0.171429 2.362500 0.0
0.214286 2.362500 0.0
0.257143 2.362500 0.0
0.300000 2.362500 0.0
0.342857 2.362500 0.0
0.385714 2.362500 0.0
0.428571 2.362500 0.0
0.471429 2.362500 0.0
0.514286 2.362500 0.0
0.557143 2.362500 0.0
0.600000 2.362500 0.0
0.642857 2.362500 0.0
0.685714 2.362500 0.0
0.728571 2.362500 0.0
0.771429 2.362500 0.0
0.814286 2.362500 0.0
0.857143 2.362500 0.0
0.900000 2.362500 0.0
0.942857 2.362500 0.0
0.985714 2.362500 0.0
1.028571 2.362500 0.0
1.071429 2.362500 0.0
1.114286 2.362500 0.0
1.157143 2.362500 0.0
1.200000 2.362500 0.0
1.242857 2.362500 0.0
1.285714 2.362500 0.0
1.328571 2.362500 0.0
1.371429 2.362500 0.0
1.414286 2.362500 0.0
1.457143 2.362500 0.0
1.500000 2.362500 0.0
0.000000 2.406250 0.0
0.042857 2.406250 0.0
0.085714 2.406250 0.0
0.128571 2.406250 0.0
0.171429 2.406250 0.0
0.214286 2.406250 0.0
0.257143 2.406250 0.0
0.300000 2.406250 0.0
0.342857 2.406250 0.0
0.385714 2.406250 0.0
0.428571 2.406250 0.0
0.471429 2.406250 0.0
0.514286 2.406250 0.0
0.557143 2.406250 0.0
0.600000 2.406250 0.0
0.642857 2.406250 0.0
0.685714 2.406250 0.0
0.728571 2.406250 0.0
0.771429 2.406250 0.0
0.814286 2.406250 0.0
0.857143 2.406250 0.0
0.900000 2.406250 0.0
0.942857 2.406250 0.0
0.985714 2.406250 0.0
1.028571 2.406250 0.0
1.071429 2.406250 0.0
1.114286 2.406250 0.0
1.157143 2.406250 0.0
1.200000 2.406250 0.0
1.242857 2.406250 0.0
1.285714 2.406250 0.0
1.328571 2.406250 0.0
1.371429 2.406250 0.0
1.414286 2.406250 0.0
1.457143 2.406250 0.0
1.500000 2.406250 0.0
0.000000 2.450000 0.0
0.042857 2.450000 0.0
0.085714 2.450000 0.0
0.128571 2.450000 0.0
0.171429 2.450000 0.0
0.214286 2.450000 0.0
0.257143 2.450000 0.0
0.300000 2.450000 0.0
0.342857 2.450000 0.0
0.385714 2.450000 0.0
0.428571 2.450000 0.0
0.471429 2.450000 0.0
0.514286 2.450000 0.0
0.557143 2.450000 0.0
0.600000 2.450000 0.0
0.642857 2.450000 0.0
0.685714 2.450000 0.0
0.728571 2.450000 0.0
0.771429 2.450000 0.0
0.814286 2.450000 0.0
0.857143 2.450000 0.0
0.900000 2.450000 0.0
0.942857 2.450000 0.0
0.985714 2.450000 0.0
1.028571 2.450000 0.0
1.071429 2.450000 0.0
1.114286 2.450000 0.0
1.157143 2.450000 0.0
1.200000 2.450000 0.0
1.242857 2.450000 0.0
1.285714 2.450000 0.0
1.328571 2.450000 0.0
1.371429 2.450000 0.0
1.414286 2.450000 0.0
1.457143 2.450000 0.0
1.500000 2.450000 0.0
0.000000 2.493750 0.0
0.042857 2.493750 0.0
0.085714 2.493750 0.0
0.128571 2.493750 0.0
0.171429 2.493750 0.0
0.214286 2.493750 0.0
0.257143 2.493750 0.0
0.300000 2.493750 0.0
0.342857 2.493750 0.0
0.385714 2.493750 0.0
0.428571 2.493750 0.0
0.471429 2.493750 0.0
0.514286 2.493750 0.0
0.557143 2.493750 0.0
0.600000 2.493750 0.0
0.642857 2.493750 0.0
0.685714 2.493750 0.0
0.728571 2.493750 0.0
0.771429 2.493750 0.0
0.814286 2.493750 0.0
0.857143 2.493750 0.0
0.900000 2.493750 0.0
0.942857 2.493750 0.0
0.985714 2.493750 0.0
1.028571 2.493750 0.0
1.071429 2.493750 0.0
1.114286 2.493750 0.0
1.157143 2.493750 0.0
1.200000 2.493750 0.0
1.242857 2.493750 0.0
1.285714 2.493750 0.0
1.328571 2.493750 0.0
1.371429 2.493750 0.0
1.414286 2.493750 0.0
1.457143 2.493750 0.0
1.500000 2.493750 0.0
0.000000 2.537500 0.0
0.042857 2.537500 0.0
0.085714 2.537500 0.0
0.128571 2.537500 0.0
0.171429 2.537500 0.0
0.214286 2.537500 0.0
0.257143 2.537500 0.0
0.300000 2.537500 0.0
0.342857 2.537500 0.0
0.385714 2.537500 0.0
0.428571 2.537500 0.0
0.471429 2.537500 0.0
0.514286 2.537500 0.0
0.557143 2.537500 0.0
0.600000 2.537500 0.0
0.642857 2.537500 0.0
0.685714 2.537500 0.0
0.728571 2.537500 0.0
0.771429 2.537500 0.0
0.814286 2.537500 0.0
0.857143 2.537500 0.0
0.900000 2.537500 0.0
0.942857 2.537500 0.0
0.985714 2.537500 0.0
1.028571 2.537500 0.0
1.071429 2.537500 0.0
1.114286 2.537500 0.0
1.157143 2.537500 0.0
1.200000 2.537500 0.0
1.242857 2.537500 0.0
1.285714 2.537500 0.0
1.328571 2.537500 0.0
1.371429 2.537500 0.0
1.414286 2.537500 0.0
1.457143 2.537500 0.0
1.500000 2.537500 0.0
0.000000 2.581250 0.0
0.042857 2.581250 0.0
0.085714 2.581250 0.0
0.128571 2.581250 0.0
0.171429 2.581250 0.0
0.214286 2.581250 0.0
0.257143 2.581250 0.0
0.300000 2.581250 0.0
0.342857 2.581250 0.0
0.385714 2.581250 0.0
0.428571 2.581250 0.0
0.471429 2.581250 0.0
0.514286 2.581250 0.0
0.557143 2.581250 0.0
0.600000 2.581250 0.0
0.642857 2.581250 0.0
0.685714 2.581250 0.0
0.728571 2.581250 0.0
0.771429 2.581250 0.0
0.814286 2.581250 0.0
0.857143 2.581250 0.0
0.900000 2.581250 0.0
0.942857 2.581250 0.0
0.985714 2.581250 0.0
1.028571 2.581250 0.0
1.071429 2.581250 0.0
1.114286 2.581250 0.0
1.157143 2.581250 0.0
1.200000 2.581250 0.0
1.242857 2.581250 0.0
1.285714 2.581250 0.0
1.328571 2.581250 0.0
1.371429 2.581250 0.0
1.414286 2.581250 0.0
1.457143 2.581250 0.0
1.500000 2.581250 0.0
0.000000 2.625000 0.0
0.042857 2.625000 0.0
0.085714 2.625000 0.0
0.128571 2.625000 0.0
0.171429 2.625000 0.0
0.214286 2.625000 0.0
0.257143 2.625000 0.0
0.300000 2.625000 0.0
0.342857 2.625000 0.0
0.385714 2.625000 0.0
0.428571 2.625000 0.0
0.471429 2.625000 0.0
0.514286 2.625000 0.0
0.557143 2.625000 0.0
0.600000 2.625000 0.0
0.642857 2.625000 0.0
0.685714 2.625000 0.0
0.728571 2.625000 0.0
0.771429 2.625000 0.0
0.814286 2.625000 0.0
0.857143 2.625000 0.0
0.900000 2.625000 0.0
0.942857 2.625000 0.0
0.985714 2.625000 0.0
1.028571 2.625000 0.0
1.071429 2.625000 0.0
1.114286 2.625000 0.0
1.157143 2.625000 0.0
1.200000 2.625000 0.0
1.242857 2.625000 0.0
1.285714 2.625000 0.0
1.328571 2.625000 0.0
1.371429 2.625000 0.0
1.414286 2.625000 0.0
1.457143 2.625000 0.0
1.500000 2.625000 0.0
</DataArray></Points>
<PointData>
<DataArray NumberOfComponents="1" format="ascii" type ="Float32" Name="phi">
0.737750
0.749635
0.752018
0.753032
0.740389
0.708229
0.667715
0.626619
0.585793
0.545351
0.505221
0.465355
0.425778
0.386630
0.348099
0.310239
0.273093
0.237051
0.202883
0.171227
0.142459
0.118096
0.101757
0.096445
0.099296
0.104918
0.110635
0.116070
0.120715
0.124561
0.129415
0.136583
0.146973
0.159395
0.171464
0.180951
0.704944
0.705925
0.708358
0.711750
0.710539
0.691527
0.655278
0.614168
0.572847
0.531761
0.490863
0.450111
0.409554
0.369350
0.329641
0.290448
0.251795
0.213935
0.177328
0.142326
0.109509
0.080640
0.060029
0.052726
0.055614
0.061383
0.067142
0.072647
0.077241
0.080998
0.086053
0.093768
0.104830
0.117595
0.129383
0.138027
0.661203
0.662218
0.664719
0.668213
0.671679
0.665998
0.641469
0.603451
0.561956
0.520262
0.478667
0.437190
0.395894
0.354907
0.314247
0.273866
0.233820
0.194311
0.155576
0.117801
0.081419
0.049400
0.027064
0.018623
0.019812
0.022906
0.026031
0.029852
0.033764
0.037441
0.042760
0.051142
0.062878
0.075804
0.087115
0.094906
0.617462
0.618512
0.621087
0.624652
0.628620
0.629671
0.619464
0.591970
0.552899
0.510916
0.468795
0.426776
0.384919
0.343246
0.301730
0.260366
0.219225
0.178446
0.138134
0.098363
0.059289
0.026012
0.004113
-0.006317
-0.009940
-0.012273
-0.013740
-0.012601
-0.009656
-0.006170
-0.000649
0.008407
0.020719
0.033763
0.044637
0.051630
0.573722
0.574810
0.577460
0.581084
0.585033
0.587214
0.585063
0.572468
0.543590
0.503744
0.461395
0.418973
0.376636
0.334381
0.292200
0.250111
0.208159
0.166398
0.124865
0.083612
0.042739
0.007781
-0.016979
-0.035044
-0.046667
-0.052689
-0.056048
-0.055831
-0.053161
-0.049741
-0.043851
-0.034154
-0.021632
-0.008780
0.001551
0.007845
0.529982
0.531110
0.533838
0.537519
0.541469
0.543585
0.543011
0.539556
0.526336
0.496701
0.456383
0.413771
0.371098
0.328456
0.285849
0.243285
0.200773
0.158327
0.115964
0.073707
0.031851
-0.006004
-0.037791
-0.066206
-0.086736
-0.096098
-0.099711
-0.099511
-0.096797
-0.093160
-0.086598
-0.076228
-0.063656
-0.051313
-0.041752
-0.036038
0.486243
0.487413
0.490222
0.493955
0.497901
0.499932
0.499349
0.497848
0.494561
0.481352
0.451572
0.411081
0.368296
0.325478
0.282672
0.239878
0.197099
0.154336
0.111593
0.068865
0.026732
-0.013607
-0.052710
-0.090279
-0.120723
-0.137599
-0.143268
-0.143193
-0.140414
-0.136455
-0.129152
-0.118167
-0.105527
-0.093673
-0.084837
-0.079598
0.442505
0.443719
0.446611
0.450392
0.454325
0.456278
0.455638
0.454188
0.453010
0.450206
0.437825
0.409192
0.369236
0.326490
0.283782
0.241096
0.198441
0.155824
0.113258
0.070742
0.028598
-0.012747
-0.054306
-0.095947
-0.134698
-0.165574
-0.183110
-0.186783
-0.184015
-0.179614
-0.171520
-0.160056
-0.147502
-0.136200
-0.128031
-0.123190
0.398768
0.400028
0.403005
0.406827
0.410742
0.412619
0.411925
0.410471
0.409333
0.408579
0.406609
0.396252
0.370173
0.331519
0.289085
0.246793
0.204571
0.162449
0.120461
0.078621
0.036951
-0.004225
-0.045255
-0.086307
-0.126919
-0.166590
-0.200079
-0.220587
-0.226511
-0.222621
-0.213720
-0.201936
-0.189591
-0.178876
-0.171311
-0.166810
0.355032
0.356341
0.359403
0.363264
0.367155
0.368957
0.368211
0.366752
0.365608
0.364875
0.364406
0.363368
0.355827
0.333724
0.297365
0.255471
0.213741
0.172284
0.131048
0.090067
0.049370
0.009155
-0.031722
-0.072204
-0.111445
-0.150720
-0.189693
-0.225533
-0.251740
-0.261556
-0.255835
-0.243873
-0.231816
-0.221696
-0.214661
-0.210452
0.311297
0.312658
0.315805
0.319708
0.323572
0.325291
0.324495
0.323030
0.321879
0.321144
0.320682
0.320402
0.320532
0.316570
0.299403
0.266344
0.225853
0.185204
0.144874
0.104869
0.065209
0.025941
-0.014571
-0.054861
-0.093583
-0.132212
-0.170356
-0.207895
-0.245147
-0.274722
-0.288563
-0.285636
-0.274206
-0.264647
-0.258068
-0.254113
0.267564
0.268978
0.272212
0.276171
0.280002
0.281620
0.280777
0.279306
0.278148
0.277409
0.276947
0.276669
0.276989
0.278637
0.278563
0.267617
0.239311
0.200854
0.161381
0.122202
0.083364
0.044865
0.005449
-0.035551
-0.074871
-0.112148
-0.149310
-0.186045
-0.222411
-0.258468
-0.291034
-0.311376
-0.314269
-0.307702
-0.301523
-0.297794
0.223833
0.225302
0.228625
0.232651
0.236435
0.237937
0.237057
0.235580
0.234415
0.233672
0.233210
0.232932
0.233264
0.234990
0.238879
0.243826
0.239564
0.215964
0.179626
0.141101
0.102892
0.064977
0.026878
-0.013781
-0.053631
-0.090336
-0.126768
-0.162898
-0.198699
-0.234065
-0.268842
-0.302657
-0.326662
-0.338808
-0.343144
-0.341516
0.180103
0.181631
0.185045
0.189137
0.192860
0.194242
0.193336
0.191853
0.190680
0.189933
0.189470
0.189192
0.189537
0.191336
0.195484
0.203119
0.212966
0.213667
0.194843
0.161478
0.123728
0.086268
0.049386
0.010783
-0.030042
-0.068046
-0.103330
-0.138825
-0.173963
-0.208521
-0.242092
-0.274211
-0.304172
-0.330659
-0.347535
-0.353780
0.136376
0.137964
0.141469
0.145628
0.149277
0.150536
0.149614
0.148124
0.146943
0.146192
0.145728
0.145450
0.145807
0.147686
0.152142
0.160365
0.171718
0.183602
0.186432
0.173461
0.145226
0.108893
0.072723
0.036132
-0.004137
-0.043260
-0.078470
-0.113680
-0.148165
-0.181567
-0.213461
-0.243457
-0.270824
-0.294098
-0.311634
-0.322729
0.092651
0.094303
0.097900
0.102126
0.105690
0.106821
0.105893
0.104397
0.103207
0.102450
0.101984
0.101705
0.102075
0.104045
0.108873
0.117820
0.129641
0.141418
0.150871
0.156076
0.150948
0.129549
0.096750
0.061187
0.024221
-0.015468
-0.053826
-0.088372
-0.121126
-0.152649
-0.182570
-0.210440
-0.235265
-0.255528
-0.270326
-0.279723
0.048921
0.050632
0.054308
0.058578
0.062022
0.063017
0.062102
0.060606
0.059408
0.058647
0.058179
0.057901
0.058286
0.060368
0.065676
0.075419
0.087689
0.099241
0.108132
0.115895
0.125161
0.127773
0.114581
0.086427
0.051856
0.014487
-0.025505
-0.060957
-0.091859
-0.121595
-0.149753
-0.175595
-0.197901
-0.215493
-0.228258
-0.236517
0.005716
0.007648
0.011673
0.016318
0.020025
0.021026
0.020099
0.018654
0.017560
0.016886
0.016482
0.016244
0.016592
0.018456
0.023757
0.033610
0.045850
0.056921
0.065192
0.073000
0.083272
0.096338
0.105264
0.100972
0.078855
0.045888
0.008766
-0.028801
-0.060633
-0.088930
-0.115463
-0.139189
-0.159047
-0.174449
-0.185780
-0.193204
-0.037398
-0.035261
-0.030843
-0.025766
-0.021593
-0.020250
-0.020936
-0.022098
-0.022876
-0.023267
-0.023464
-0.023519
-0.023102
-0.021372
-0.016279
-0.006703
0.005399
0.016021
0.023302
0.030525
0.041205
0.055028
0.069609
0.083306
0.086635
0.071741
0.042510
0.006867
-0.026440
-0.055014
-0.079858
-0.101317
-0.119056
-0.132759
-0.143075
-0.149827
-0.080948
-0.078791
-0.074267
-0.069135
-0.064913
-0.063363
-0.063790
-0.064728
-0.065310
-0.065516
-0.065578
-0.065497
-0.064959
-0.062981
-0.057395
-0.047387
-0.035138
-0.024643
-0.017704
-0.010988
-0.000405
0.013794
0.028377
0.043568
0.060803
0.072109
0.066643
0.043181
0.011779
-0.017453
-0.041934
-0.062214
-0.078351
-0.090668
-0.100229
-0.106400
-0.113609
-0.122315
-0.117737
-0.112630
-0.108563
-0.107116
-0.107549
-0.108499
-0.109097
-0.109316
-0.109384
-0.109309
-0.108751
-0.106475
-0.100036
-0.089383
-0.077303
-0.067120
-0.060009
-0.052766
-0.041833
-0.027689
-0.013450
0.001695
0.020347
0.042935
0.062085
0.066386
0.049813
0.023157
-0.000530
-0.020745
-0.036486
-0.048336
-0.057322
-0.062976
</DataArray>
<DataArray NumberOfComponents="1" format="ascii" type ="Float32" Name="u">
0.000000
0.007057
0.007120
0.007275
0.007536
0.007910
0.008399
0.009004
0.009724
0.010558
0.011499
0.012540
0.013668
0.014865
0.016122
0.017445
0.018874
0.020507
0.022479
0.024855
0.027356
0.029201
0.029649
0.028870
0.027394
0.025410
0.022919
0.019969
0.016657
0.013119
0.009539
0.006143
0.003131
0.000625
-0.001373
-0.002955
0.005708
0.005708
0.005771
0.005925
0.006184
0.006549
0.007017
0.007586
0.008250
0.009003
0.009836
0.010736
0.011687
0.012675
0.013695
0.014764
0.015937
0.017337
0.019149
0.021519
0.024209
0.026201
0.026275
0.024885
0.022772
0.020264
0.017422
0.014433
0.011464
0.008577
0.005845
0.003404
0.001366
-0.000202
-0.001351
-0.002211
0.004217
0.004217
0.004281
0.004431
0.004675
0.005010
0.005429
0.005925
0.006487
0.007106
0.007768
0.008458
0.009164
0.009874
0.010592
0.011345
0.012195
0.013277
0.014817
0.017069
0.019920
0.022166
0.021674
0.019625
0.017135
0.014570
0.012007
0.009609
0.007450
0.005477
0.003659
0.002054
0.000673
-0.000340
-0.000976
-0.001424
0.002599
0.002599
0.002661
0.002798
0.003011
0.003292
0.003629
0.004011
0.004423
0.004853
0.005284
0.005704
0.006101
0.006473
0.006830
0.007201
0.007645
0.008282
0.009345
0.011179
0.013899
0.016325
0.015253
0.013290
0.011320
0.009414
0.007687
0.006155
0.004793
0.003592
0.002532
0.001581
0.000673
-0.000032
-0.000419
-0.000693
0.000875
0.000875
0.000929
0.001041
0.001205
0.001407
0.001630
0.001859
0.002078
0.002272
0.002425
0.002526
0.002569
0.002557
0.002503
0.002431
0.002378
0.002423
0.002748
0.003742
0.005823
0.008304
0.007690
0.007066
0.006178
0.005126
0.004161
0.003309
0.002560
0.001952
0.001479
0.001082
0.000774
0.000467
0.000199
-0.000016
-0.000927
-0.000927
-0.000886
-0.000810
-0.000714
-0.000615
-0.000533
-0.000486
-0.000491
-0.000564
-0.000716
-0.000957
-0.001288
-0.001704
-0.002196
-0.002751
-0.003361
-0.004004
-0.004571
-0.004669
-0.003515
-0.000874
0.000543
0.001473
0.001610
0.001327
0.000961
0.000635
0.000398
0.000281
0.000280
0.000359
0.000556
0.000678
0.000654
0.000638
-0.002771
-0.002771
-0.002749
-0.002719
-0.002703
-0.002723
-0.002798
-0.002949
-0.003190
-0.003534
-0.003992
-0.004567
-0.005259
-0.006065
-0.006981
-0.008008
-0.009159
-0.010454
-0.011842
-0.012962
-0.012737
-0.009895
-0.006049
-0.003686
-0.002540
-0.002067
-0.001848
-0.001678
-0.001463
-0.001155
-0.000747
-0.000273
0.000233
0.000697
0.001056
0.001383
-0.004618
-0.004618
-0.004616
-0.004639
-0.004710
-0.004853
-0.005089
-0.005433
-0.005898
-0.006494
-0.007225
-0.008094
-0.009099
-0.010239
-0.011514
-0.012936
-0.014525
-0.016310
-0.018289
-0.020205
-0.020954
-0.018348
-0.012430
-0.008453
-0.006287
-0.005091
-0.004319
-0.003689
-0.003064
-0.002375
-0.001605
-0.000783
0.000048
0.000842
0.001556
0.002209
-0.006422
-0.006422
-0.006443
-0.006518
-0.006676
-0.006938
-0.007321
-0.007837
-0.008495
-0.009298
-0.010248
-0.011343
-0.012580
-0.013962
-0.015493
-0.017184
-0.019054
-0.021130
-0.023441
-0.025906
-0.027728
-0.026203
-0.018658
-0.013056
-0.009836
-0.007897
-0.006568
-0.005492
-0.004480
-0.003439
-0.002340
-0.001200
-0.000061
0.001035
0.002055
0.002996
-0.008145
-0.008145
-0.008187
-0.008313
-0.008550
-0.008917
-0.009424
-0.010079
-0.010883
-0.011835
-0.012931
-0.014168
-0.015543
-0.017060
-0.018725
-0.020551
-0.022554
-0.024753
-0.027187
-0.029912
-0.032615
-0.032952
-0.025526
-0.018011
-0.013398
-0.010615
-0.008703
-0.007176
-0.005787
-0.004412
-0.003006
-0.001575
-0.000154
0.001214
0.002501
0.003698
-0.009757
-0.009757
-0.009820
-0.009993
-0.010301
-0.010755
-0.011360
-0.012112
-0.013009
-0.014043
-0.015208
-0.016502
-0.017922
-0.019473
-0.021164
-0.023013
-0.025038
-0.027256
-0.029690
-0.032421
-0.035511
-0.037756
-0.033229
-0.023728
-0.017167
-0.013384
-0.010827
-0.008823
-0.007052
-0.005352
-0.003657
-0.001958
-0.000284
0.001328
0.002851
0.004271
-0.011244
-0.011244
-0.011330
-0.011550
-0.011924
-0.012452
-0.013123
-0.013929
-0.014859
-0.015908
-0.017071
-0.018347
-0.019736
-0.021244
-0.022883
-0.024678
-0.026657
-0.028840
-0.031232
-0.033872
-0.036937
-0.040268
-0.039869
-0.030589
-0.021582
-0.016356
-0.013027
-0.010502
-0.008335
-0.006313
-0.004341
-0.002395
-0.000492
0.001336
0.003063
0.004678
-0.012609
-0.012609
-0.012723
-0.013002
-0.013449
-0.014039
-0.014744
-0.015547
-0.016445
-0.017441
-0.018542
-0.019749
-0.021063
-0.022482
-0.024020
-0.025716
-0.027614
-0.029739
-0.032083
-0.034630
-0.037493
-0.040977
-0.043608
-0.038214
-0.026988
-0.019686
-0.015393
-0.012281
-0.009692
-0.007340
-0.005099
-0.002923
-0.000816
0.001200
0.003105
0.004889
-0.013864
-0.013864
-0.014022
-0.014388
-0.014935
-0.015576
-0.016254
-0.016970
-0.017755
-0.018641
-0.019649
-0.020780
-0.022014
-0.023330
-0.024732
-0.026301
-0.028108
-0.030177
-0.032471
-0.034924
-0.037557
-0.040704
-0.044452
-0.044100
-0.033808
-0.023790
-0.018068
-0.014244
-0.011179
-0.008480
-0.005970
-0.003579
-0.001289
0.000890
0.002949
0.004882
-0.015024
-0.015024
-0.015252
-0.015759
-0.016455
-0.017106
-0.017634
-0.018126
-0.018717
-0.019476
-0.020420
-0.021522
-0.022728
-0.023956
-0.025170
-0.026578
-0.028303
-0.030344
-0.032590
-0.034914
-0.037319
-0.040015
-0.043545
-0.046343
-0.041055
-0.029170
-0.021284
-0.016472
-0.012847
-0.009772
-0.006992
-0.004396
-0.001942
0.000382
0.002576
0.004644
-0.016102
-0.016102
-0.016418
-0.017126
-0.018057
-0.018580
-0.018716
-0.018823
-0.019221
-0.019930
-0.020902
-0.022071
-0.023344
-0.024549
-0.025463
-0.026629
-0.028297
-0.030379
-0.032587
-0.034685
-0.036812
-0.039150
-0.042119
-0.045802
-0.045794
-0.035927
-0.025266
-0.019047
-0.014745
-0.011258
-0.008201
-0.005407
-0.002799
-0.000345
0.001972
0.004170
-0.017123
-0.017123
-0.017482
-0.018351
-0.019601
-0.019682
-0.019179
-0.018965
-0.019369
-0.020155
-0.021196
-0.022435
-0.023823
-0.025135
-0.025684
-0.026464
-0.028098
-0.030327
-0.032506
-0.034208
-0.035988
-0.038125
-0.040731
-0.044084
-0.046799
-0.042129