<VTKFile type="StructuredGrid" version="0.1" byte_order="LittleEndian">
<StructuredGrid WholeExtent="1 71 1 81 0 0">
<Piece Extent="1 36 61 81 0 0">
<PointData></PointData>
<CellData></CellData>
<Points>
<DataArray NumberOfComponents="3" format="ascii" type ="Float32" Name="mesh">
0.000000 2.625000 0.0
0.042857 2.625000 0.0
0.085714 2.625000 0.0
0.128571 2.625000 0.0
0.171429 2.625000 0.0
0.214286 2.625000 0.0
0.257143 2.625000 0.0
0.300000 2.625000 0.0
0.342857 2.625000 0.0
0.385714 2.625000 0.0
0.428571 2.625000 0.0
0.471429 2.625000 0.0
0.514286 2.625000 0.0
0.557143 2.625000 0.0
0.600000 2.625000 0.0
0.642857 2.625000 0.0
0.685714 2.625000 0.0
0.728571 2.625000 0.0
0.771429 2.625000 0.0
0.814286 2.625000 0.0
0.857143 2.625000 0.0
0.900000 2.625000 0.0
0.942857 2.625000 0.0
0.985714 2.625000 0.0
1.028571 2.625000 0.0
1.071429 2.625000 0.0
1.114286 2.625000 0.0
1.157143 2.625000 0.0
1.200000 2.625000 0.0
1.242857 2.625000 0.0
1.285714 2.625000 0.0
1.328571 2.625000 0.0
1.371429 2.625000 0.0
1.414286 2.625000 0.0
1.457143 2.625000 0.0
1.500000 2.625000 0.0
0.000000 2.668750 0.0
0.042857 2.668750 0.0
0.085714 2.668750 0.0
0.128571 2.668750 0.0
0.171429 2.668750 0.0
0.214286 2.668750 0.0
0.257143 2.668750 0.0
0.300000 2.668750 0.0
0.342857 2.668750 0.0
0.385714 2.668750 0.0
0.428571 2.668750 0.0
0.471429 2.668750 0.0
0.514286 2.668750 0.0
0.557143 2.668750 0.0
0.600000 2.668750 0.0
0.642857 2.668750 0.0
0.685714 2.668750 0.0
0.728571 2.668750 0.0
0.771429 2.668750 0.0
0.814286 2.668750 0.0
0.857143 2.668750 0.0
0.900000 2.668750 0.0
0.942857 2.668750 0.0
0.985714 2.668750 0.0
1.028571 2.668750 0.0
1.071429 2.668750 0.0
1.114286 2.668750 0.0
1.157143 2.668750 0.0
1.200000 2.668750 0.0
1.242857 2.668750 0.0
1.285714 2.668750 0.0
1.328571 2.668750 0.0
1.371429 2.668750 0.0
1.414286 2.668750 0.0
1.457143 2.668750 0.0
1.500000 2.668750 0.0
0.000000 2.712500 0.0
0.042857 2.712500 0.0
0.085714 2.712500 0.0
0.128571 2.712500 0.0
0.171429 2.712500 0.0
0.214286 2.712500 0.0
0.257143 2.712500 0.0
0.300000 2.712500 0.0
0.342857 2.712500 0.0
0.385714 2.712500 0.0
0.428571 2.712500 0.0
0.471429 2.712500 0.0
0.514286 2.712500 0.0
0.557143 2.712500 0.0
0.600000 2.712500 0.0
0.642857 2.712500 0.0
0.685714 2.712500 0.0
0.728571 2.712500 0.0
0.771429 2.712500 0.0
0.814286 2.712500 0.0
0.857143 2.712500 0.0
0.900000 2.712500 0.0
0.942857 2.712500 0.0
0.985714 2.712500 0.0
1.028571 2.712500 0.0
1.071429 2.712500 0.0
1.114286 2.712500 0.0
1.157143 2.712500 0.0
1.200000 2.712500 0.0
1.242857 2.712500 0.0
1.285714 2.712500 0.0
1.328571 2.712500 0.0
1.371429 2.712500 0.0
1.414286 2.712500 0.0
1.457143 2.712500 0.0
1.500000 2.712500 0.0
0.000000 2.756250 0.0
0.042857 2.756250 0.0
0.085714 2.756250 0.0
0.128571 2.756250 0.0
0.171429 2.756250 0.0
0.214286 2.756250 0.0
0.257143 2.756250 0.0
0.300000 2.756250 0.0
0.342857 2.756250 0.0
0.385714 2.756250 0.0
0.428571 2.756250 0.0
0.471429 2.756250 0.0
0.514286 2.756250 0.0
0.557143 2.756250 0.0
0.600000 2.756250 0.0
0.642857 2.756250 0.0
0.685714 2.756250 0.0
0.728571 2.756250 0.0
0.771429 2.756250 0.0
0.814286 2.756250 0.0
0.857143 2.756250 0.0
0.900000 2.756250 0.0
0.942857 2.756250 0.0
0.985714 2.756250 0.0
1.028571 2.756250 0.0
1.071429 2.756250 0.0
1.114286 2.756250 0.0
1.157143 2.756250 0.0
1.200000 2.756250 0.0
1.242857 2.756250 0.0
1.285714 2.756250 0.0
1.328571 2.756250 0.0
1.371429 2.756250 0.0
1.414286 2.756250 0.0
1.457143 2.756250 0.0
1.500000 2.756250 0.0
0.000000 2.800000 0.0
0.042857 2.800000 0.0
0.085714 2.800000 0.0
0.128571 2.800000 0.0
0.171429 2.800000 0.0
0.214286 2.800000 0.0
0.257143 2.800000 0.0
0.300000 2.800000 0.0
0.342857 2.800000 0.0
0.385714 2.800000 0.0
0.428571 2.800000 0.0
0.471429 2.800000 0.0
0.514286 2.800000 0.0
0.557143 2.800000 0.0
0.600000 2.800000 0.0
0.642857 2.800000 0.0
0.685714 2.800000 0.0
0.728571 2.800000 0.0
0.771429 2.800000 0.0
0.814286 2.800000 0.0
0.857143 2.800000 0.0
0.900000 2.800000 0.0
0.942857 2.800000 0.0
0.985714 2.800000 0.0
1.028571 2.800000 0.0
1.071429 2.800000 0.0
1.114286 2.800000 0.0
1.157143 2.800000 0.0
1.200000 2.800000 0.0
1.242857 2.800000 0.0
1.285714 2.800000 0.0
1.328571 2.800000 0.0
1.371429 2.800000 0.0
1.414286 2.800000 0.0
1.457143 2.800000 0.0
1.500000 2.800000 0.0
0.000000 2.843750 0.0
0.042857 2.843750 0.0
0.085714 2.843750 0.0
0.128571 2.843750 0.0
0.171429 2.843750 0.0
0.214286 2.843750 0.0
0.257143 2.843750 0.0
0.300000 2.843750 0.0
0.342857 2.843750 0.0
0.385714 2.843750 0.0
0.428571 2.843750 0.0
0.471429 2.843750 0.0
0.514286 2.843750 0.0
0.557143 2.843750 0.0
0.600000 2.843750 0.0
0.642857 2.843750 0.0
0.685714 2.843750 0.0
0.728571 2.843750 0.0
0.771429 2.843750 0.0
0.814286 2.843750 0.0
0.857143 2.843750 0.0
0.900000 2.843750 0.0
0.942857 2.843750 0.0
0.985714 2.843750 0.0
1.028571 2.843750 0.0
1.071429 2.843750 0.0
1.114286 2.843750 0.0
1.157143 2.843750 0.0
1.200000 2.843750 0.0
1.242857 2.843750 0.0
1.285714 2.843750 0.0
1.328571 2.843750 0.0
1.371429 2.843750 0.0
1.414286 2.843750 0.0
1.457143 2.843750 0.0
1.500000 2.843750 0.0
0.000000 2.887500 0.0
0.042857 2.887500 0.0
0.085714 2.887500 0.0
0.128571 2.887500 0.0
0.171429 2.887500 0.0
0.214286 2.887500 0.0
0.257143 2.887500 0.0
0.300000 2.887500 0.0
0.342857 2.887500 0.0
0.385714 2.887500 0.0
0.428571 2.887500 0.0
0.471429 2.887500 0.0
0.514286 2.887500 0.0
0.557143 2.887500 0.0
0.600000 2.887500 0.0
0.642857 2.887500 0.0
0.685714 2.887500 0.0
0.728571 2.887500 0.0
0.771429 2.887500 0.0
0.814286 2.887500 0.0
0.857143 2.887500 0.0
0.900000 2.887500 0.0
0.942857 2.887500 0.0
0.985714 2.887500 0.0
1.028571 2.887500 0.0
1.071429 2.887500 0.0
1.114286 2.887500 0.0
1.157143 2.887500 0.0
1.200000 2.887500 0.0
1.242857 2.887500 0.0
1.285714 2.887500 0.0
1.328571 2.887500 0.0
1.371429 2.887500 0.0
1.414286 2.887500 0.0
1.457143 2.887500 0.0
1.500000 2.887500 0.0
0.000000 2.931250 0.0
0.042857 2.931250 0.0
0.085714 2.931250 0.0
0.128571 2.931250 0.0
0.171429 2.931250 0.0
0.214286 2.931250 0.0
0.257143 2.931250 0.0
0.300000 2.931250 0.0
0.342857 2.931250 0.0
0.385714 2.931250 0.0
0.428571 2.931250 0.0
0.471429 2.931250 0.0
0.514286 2.931250 0.0
0.557143 2.931250 0.0
0.600000 2.931250 0.0
0.642857 2.931250 0.0
0.685714 2.931250 0.0
0.728571 2.931250 0.0
0.771429 2.931250 0.0
0.814286 2.931250 0.0
0.857143 2.931250 0.0
0.900000 2.931250 0.0
0.942857 2.931250 0.0
0.985714 2.931250 0.0
1.028571 2.931250 0.0
1.071429 2.931250 0.0
1.114286 2.931250 0.0
1.157143 2.931250 0.0
1.200000 2.931250 0.0
1.242857 2.931250 0.0
1.285714 2.931250 0.0
1.328571 2.931250 0.0
1.371429 2.931250 0.0
1.414286 2.931250 0.0
1.457143 2.931250 0.0
1.500000 2.931250 0.0
0.000000 2.975000 0.0
0.042857 2.975000 0.0
0.085714 2.975000 0.0
0.128571 2.975000 0.0
0.171429 2.975000 0.0
0.214286 2.975000 0.0
0.257143 2.975000 0.0
0.300000 2.975000 0.0
0.342857 2.975000 0.0
0.385714 2.975000 0.0
0.428571 2.975000 0.0
0.471429 2.975000 0.0
0.514286 2.975000 0.0
0.557143 2.975000 0.0
0.600000 2.975000 0.0
0.642857 2.975000 0.0
0.685714 2.975000 0.0
0.728571 2.975000 0.0
0.771429 2.975000 0.0
0.814286 2.975000 0.0
0.857143 2.975000 0.0
0.900000 2.975000 0.0
0.942857 2.975000 0.0
0.985714 2.975000 0.0
1.028571 2.975000 0.0
1.071429 2.975000 0.0
1.114286 2.975000 0.0
1.157143 2.975000 0.0
1.200000 2.975000 0.0
1.242857 2.975000 0.0
1.285714 2.975000 0.0
1.328571 2.975000 0.0
1.371429 2.975000 0.0
1.414286 2.975000 0.0
1.457143 2.975000 0.0
1.500000 2.975000 0.0
0.000000 3.018750 0.0
0.042857 3.018750 0.0
0.085714 3.018750 0.0
0.128571 3.018750 0.0
0.171429 3.018750 0.0
0.214286 3.018750 0.0
0.257143 3.018750 0.0
0.300000 3.018750 0.0
0.342857 3.018750 0.0
0.385714 3.018750 0.0
0.428571 3.018750 0.0
0.471429 3.018750 0.0
0.514286 3.018750 0.0
0.557143 3.018750 0.0
0.600000 3.018750 0.0
0.642857 3.018750 0.0
0.685714 3.018750 0.0
0.728571 3.018750 0.0
0.771429 3.018750 0.0
0.814286 3.018750 0.0
0.857143 3.018750 0.0
0.900000 3.018750 0.0
0.942857 3.018750 0.0
0.985714 3.018750 0.0
1.028571 3.018750 0.0
1.071429 3.018750 0.0
1.114286 3.018750 0.0
1.157143 3.018750 0.0
1.200000 3.018750 0.0
1.242857 3.018750 0.0
1.285714 3.018750 0.0
1.328571 3.018750 0.0
1.371429 3.018750 0.0
1.414286 3.018750 0.0
1.457143 3.018750 0.0
1.500000 3.018750 0.0
0.000000 3.062500 0.0
0.042857 3.062500 0.0
0.085714 3.062500 0.0
0.128571 3.062500 0.0
0.171429 3.062500 0.0
0.214286 3.062500 0.0
0.257143 3.062500 0.0
0.300000 3.062500 0.0
0.342857 3.062500 0.0
0.385714 3.062500 0.0
0.428571 3.062500 0.0
0.471429 3.062500 0.0
0.514286 3.062500 0.0
0.557143 3.062500 0.0
0.600000 3.062500 0.0
0.642857 3.062500 0.0
0.685714 3.062500 0.0
0.728571 3.062500 0.0
0.771429 3.062500 0.0
0.814286 3.062500 0.0
0.857143 3.062500 0.0
0.900000 3.062500 0.0
0.942857 3.062500 0.0
0.985714 3.062500 0.0
1.028571 3.062500 0.0
1.071429 3.062500 0.0
1.114286 3.062500 0.0
1.157143 3.062500 0.0
1.200000 3.062500 0.0
1.242857 3.062500 0.0
1.285714 3.062500 0.0
1.328571 3.062500 0.0
1.371429 3.062500 0.0
1.414286 3.062500 0.0
1.457143 3.062500 0.0
1.500000 3.062500 0.0
0.000000 3.106250 0.0
0.042857 3.106250 0.0
0.085714 3.106250 0.0
0.128571 3.106250 0.0
0.171429 3.106250 0.0
0.214286 3.106250 0.0
0.257143 3.106250 0.0
0.300000 3.106250 0.0
0.342857 3.106250 0.0
0.385714 3.106250 0.0
0.428571 3.106250 0.0
0.471429 3.106250 0.0
0.514286 3.106250 0.0
0.557143 3.106250 0.0
0.600000 3.106250 0.0
0.642857 3.106250 0.0
0.685714 3.106250 0.0
0.728571 3.106250 0.0
0.771429 3.106250 0.0
0.814286 3.106250 0.0
0.857143 3.106250 0.0
0.900000 3.106250 0.0
0.942857 3.106250 0.0
0.985714 3.106250 0.0
1.028571 3.106250 0.0
1.071429 3.106250 0.0
1.114286 3.106250 0.0
1.157143 3.106250 0.0
1.200000 3.106250 0.0
1.242857 3.106250 0.0
1.285714 3.106250 0.0
1.328571 3.106250 0.0
1.371429 3.106250 0.0
1.414286 3.106250 0.0
1.457143 3.106250 0.0
1.500000 3.106250 0.0
0.000000 3.150000 0.0
0.042857 3.150000 0.0
0.085714 3.150000 0.0
0.128571 3.150000 0.0
0.171429 3.150000 0.0
0.214286 3.150000 0.0
0.257143 3.150000 0.0
0.300000 3.150000 0.0
0.342857 3.150000 0.0
0.385714 3.150000 0.0
0.428571 3.150000 0.0
0.471429 3.150000 0.0
0.514286 3.150000 0.0
0.557143 3.150000 0.0
0.600000 3.150000 0.0
0.642857 3.150000 0.0
0.685714 3.150000 0.0
0.728571 3.150000 0.0
0.771429 3.150000 0.0
0.814286 3.150000 0.0
0.857143 3.150000 0.0
0.900000 3.150000 0.0
0.942857 3.150000 0.0
0.985714 3.150000 0.0
1.028571 3.150000 0.0
1.071429 3.150000 0.0
1.114286 3.150000 0.0
1.157143 3.150000 0.0
1.200000 3.150000 0.0
1.242857 3.150000 0.0
1.285714 3.150000 0.0
1.328571 3.150000 0.0
1.371429 3.150000 0.0
1.414286 3.150000 0.0
1.457143 3.150000 0.0
1.500000 3.150000 0.0
0.000000 3.193750 0.0
0.042857 3.193750 0.0
0.085714 3.193750 0.0
0.128571 3.193750 0.0
0.171429 3.193750 0.0
0.214286 3.193750 0.0
0.257143 3.193750 0.0
0.300000 3.193750 0.0
0.342857 3.193750 0.0
0.385714 3.193750 0.0
0.428571 3.193750 0.0
0.471429 3.193750 0.0
0.514286 3.193750 0.0
0.557143 3.193750 0.0
0.600000 3.193750 0.0
0.642857 3.193750 0.0
0.685714 3.193750 0.0
0.728571 3.193750 0.0
0.771429 3.193750 0.0
0.814286 3.193750 0.0
0.857143 3.193750 0.0
0.900000 3.193750 0.0
0.942857 3.193750 0.0
0.985714 3.193750 0.0
1.028571 3.193750 0.0
1.071429 3.193750 0.0
1.114286 3.193750 0.0
1.157143 3.193750 0.0
1.200000 3.193750 0.0
1.242857 3.193750 0.0
1.285714 3.193750 0.0
1.328571 3.193750 0.0
1.371429 3.193750 0.0
1.414286 3.193750 0.0
1.457143 3.193750 0.0
1.500000 3.193750 0.0
0.000000 3.237500 0.0
0.042857 3.237500 0.0
0.085714 3.237500 0.0
0.128571 3.237500 0.0
0.171429 3.237500 0.0
0.214286 3.237500 0.0
0.257143 3.237500 0.0
0.300000 3.237500 0.0
0.342857 3.237500 0.0
0.385714 3.237500 0.0
0.428571 3.237500 0.0
0.471429 3.237500 0.0
0.514286 3.237500 0.0
0.557143 3.237500 0.0
0.600000 3.237500 0.0
0.642857 3.237500 0.0
0.685714 3.237500 0.0
0.728571 3.237500 0.0
0.771429 3.237500 0.0
0.814286 3.237500 0.0
0.857143 3.237500 0.0
0.900000 3.237500 0.0
0.942857 3.237500 0.0
0.985714 3.237500 0.0
1.028571 3.237500 0.0
1.071429 3.237500 0.0
1.114286 3.237500 0.0
1.157143 3.237500 0.0
1.200000 3.237500 0.0
1.242857 3.237500 0.0
1.285714 3.237500 0.0
1.328571 3.237500 0.0
1.371429 3.237500 0.0
1.414286 3.237500 0.0
1.457143 3.237500 0.0
1.500000 3.237500 0.0
0.000000 3.281250 0.0
0.042857 3.281250 0.0
0.085714 3.281250 0.0
0.128571 3.281250 0.0
0.171429 3.281250 0.0
0.214286 3.281250 0.0
0.257143 3.281250 0.0
0.300000 3.281250 0.0
0.342857 3.281250 0.0
0.385714 3.281250 0.0
0.428571 3.281250 0.0
0.471429 3.281250 0.0
0.514286 3.281250 0.0
0.557143 3.281250 0.0
0.600000 3.281250 0.0
0.642857 3.281250 0.0
0.685714 3.281250 0.0
0.728571 3.281250 0.0
0.771429 3.281250 0.0
0.814286 3.281250 0.0
0.857143 3.281250 0.0
0.900000 3.281250 0.0
0.942857 3.281250 0.0
0.985714 3.281250 0.0
1.028571 3.281250 0.0
1.071429 3.281250 0.0
1.114286 3.281250 0.0
1.157143 3.281250 0.0
1.200000 3.281250 0.0
1.242857 3.281250 0.0
1.285714 3.281250 0.0
1.328571 3.281250 0.0
1.371429 3.281250 0.0
1.414286 3.281250 0.0
1.457143 3.281250 0.0
1.500000 3.281250 0.0
0.000000 3.325000 0.0
0.042857 3.325000 0.0
0.085714 3.325000 0.0
0.128571 3.325000 0.0
0.171429 3.325000 0.0
0.214286 3.325000 0.0
0.257143 3.325000 0.0
0.300000 3.325000 0.0
0.342857 3.325000 0.0
0.385714 3.325000 0.0
0.428571 3.325000 0.0
0.471429 3.325000 0.0
0.514286 3.325000 0.0
0.557143 3.325000 0.0
0.600000 3.325000 0.0
0.642857 3.325000 0.0
0.685714 3.325000 0.0
0.728571 3.325000 0.0
0.771429 3.325000 0.0
0.814286 3.325000 0.0
0.857143 3.325000 0.0
0.900000 3.325000 0.0
0.942857 3.325000 0.0
0.985714 3.325000 0.0
1.028571 3.325000 0.0
1.071429 3.325000 0.0
1.114286 3.325000 0.0
1.157143 3.325000 0.0
1.200000 3.325000 0.0
1.242857 3.325000 0.0
1.285714 3.325000 0.0
1.328571 3.325000 0.0
1.371429 3.325000 0.0
1.414286 3.325000 0.0
1.457143 3.325000 0.0
1.500000 3.325000 0.0
0.000000 3.368750 0.0
0.042857 3.368750 0.0
0.085714 3.368750 0.0
0.128571 3.368750 0.0
0.171429 3.368750 0.0
0.214286 3.368750 0.0
0.257143 3.368750 0.0
0.300000 3.368750 0.0
0.342857 3.368750 0.0
0.385714 3.368750 0.0
0.428571 3.368750 0.0
0.471429 3.368750 0.0
0.514286 3.368750 0.0
0.557143 3.368750 0.0
0.600000 3.368750 0.0
0.642857 3.368750 0.0
0.685714 3.368750 0.0
0.728571 3.368750 0.0
0.771429 3.368750 0.0
0.814286 3.368750 0.0
0.857143 3.368750 0.0
0.900000 3.368750 0.0
0.942857 3.368750 0.0
0.985714 3.368750 0.0
1.028571 3.368750 0.0
1.071429 3.368750 0.0
1.114286 3.368750 0.0
1.157143 3.368750 0.0
1.200000 3.368750 0.0
1.242857 3.368750 0.0
1.285714 3.368750 0.0
1.328571 3.368750 0.0
1.371429 3.368750 0.0
1.414286 3.368750 0.0
1.457143 3.368750 0.0
1.500000 3.368750 0.0
0.000000 3.412500 0.0
0.042857 3.412500 0.0
0.085714 3.412500 0.0
0.128571 3.412500 0.0
0.171429 3.412500 0.0
0.214286 3.412500 0.0
0.257143 3.412500 0.0
0.300000 3.412500 0.0
0.342857 3.412500 0.0
0.385714 3.412500 0.0
0.428571 3.412500 0.0
0.471429 3.412500 0.0
0.514286 3.412500 0.0
0.557143 3.412500 0.0
0.600000 3.412500 0.0
0.642857 3.412500 0.0
0.685714 3.412500 0.0
0.728571 3.412500 0.0
0.771429 3.412500 0.0
0.814286 3.412500 0.0
0.857143 3.412500 0.0
0.900000 3.412500 0.0
0.942857 3.412500 0.0
0.985714 3.412500 0.0
1.028571 3.412500 0.0
1.071429 3.412500 0.0
1.114286 3.412500 0.0
1.157143 3.412500 0.0
1.200000 3.412500 0.0
1.242857 3.412500 0.0
1.285714 3.412500 0.0
1.328571 3.412500 0.0
1.371429 3.412500 0.0
1.414286 3.412500 0.0
1.457143 3.412500 0.0
1.500000 3.412500 0.0
0.000000 3.456250 0.0
0.042857 3.456250 0.0
0.085714 3.456250 0.0
0.128571 3.456250 0.0
0.171429 3.456250 0.0
0.214286 3.456250 0.0
0.257143 3.456250 0.0
0.300000 3.456250 0.0
0.342857 3.456250 0.0
0.385714 3.456250 0.0
0.428571 3.456250 0.0
0.471429 3.456250 0.0
0.514286 3.456250 0.0
0.557143 3.456250 0.0
0.600000 3.456250 0.0
0.642857 3.456250 0.0
0.685714 3.456250 0.0
0.728571 3.456250 0.0
0.771429 3.456250 0.0
0.814286 3.456250 0.0
0.857143 3.456250 0.0
0.900000 3.456250 0.0
0.942857 3.456250 0.0
0.985714 3.456250 0.0
1.028571 3.456250 0.0
1.071429 3.456250 0.0
1.114286 3.456250 0.0
1.157143 3.456250 0.0
1.200000 3.456250 0.0
1.242857 3.456250 0.0
1.285714 3.456250 0.0
1.328571 3.456250 0.0
1.371429 3.456250 0.0
1.414286 3.456250 0.0
1.457143 3.456250 0.0
1.500000 3.456250 0.0
0.000000 3.500000 0.0
0.042857 3.500000 0.0
0.085714 3.500000 0.0
0.128571 3.500000 0.0
0.171429 3.500000 0.0
0.214286 3.500000 0.0
0.257143 3.500000 0.0
0.300000 3.500000 0.0
0.342857 3.500000 0.0
0.385714 3.500000 0.0
0.428571 3.500000 0.0
0.471429 3.500000 0.0
0.514286 3.500000 0.0
0.557143 3.500000 0.0
0.600000 3.500000 0.0
0.642857 3.500000 0.0
0.685714 3.500000 0.0
0.728571 3.500000 0.0
0.771429 3.500000 0.0
0.814286 3.500000 0.0
0.857143 3.500000 0.0
0.900000 3.500000 0.0
0.942857 3.500000 0.0
0.985714 3.500000 0.0
1.028571 3.500000 0.0
1.071429 3.500000 0.0
1.114286 3.500000 0.0
1.157143 3.500000 0.0
1.200000 3.500000 0.0
1.242857 3.500000 0.0
1.285714 3.500000 0.0
1.328571 3.500000 0.0
1.371429 3.500000 0.0
1.414286 3.500000 0.0
1.457143 3.500000 0.0
1.500000 3.500000 0.0
</DataArray></Points>
<PointData>
<DataArray NumberOfComponents="1" format="ascii" type ="Float32" Name="phi">
-0.135381
-0.122315
-0.117737
-0.112630
-0.108563
-0.107116
-0.107549
-0.108499
-0.109097
-0.109316
-0.109384
-0.109309
-0.108751
-0.106475
-0.100036
-0.089383
-0.077303
-0.067120
-0.060009
-0.052766
-0.041833
-0.027689
-0.013450
0.001695
0.020347
0.042935
0.062085
0.066386
0.049813
0.023157
-0.000530
-0.020745
-0.036486
-0.048336
-0.057322
-0.062976
-0.168038
-0.165834
-0.161207
-0.156139
-0.152221
-0.150855
-0.151286
-0.152238
-0.152842
-0.153065
-0.153133
-0.153055
-0.152461
-0.149713
-0.142405
-0.131374
-0.119708
-0.110094
-0.103145
-0.095137
-0.083277
-0.069204
-0.055142
-0.039728
-0.020768
0.002251
0.029172
0.055074
0.068003
0.060513
0.041232
0.022345
0.007234
-0.004511
-0.013033
-0.018238
-0.211576
-0.209347
-0.204675
-0.199662
-0.195889
-0.194594
-0.195022
-0.195975
-0.196587
-0.196814
-0.196883
-0.196803
-0.196149
-0.192826
-0.184740
-0.173494
-0.162239
-0.153125
-0.146087
-0.137217
-0.124609
-0.110452
-0.096000
-0.079783
-0.060769
-0.038585
-0.012326
0.017704
0.050378
0.070145
0.072647
0.064707
0.050963
0.039849
0.031694
0.026856
-0.255107
-0.252850
-0.248142
-0.243197
-0.239566
-0.238333
-0.238758
-0.239712
-0.240330
-0.240562
-0.240632
-0.240549
-0.239793
-0.235836
-0.227076
-0.215730
-0.204884
-0.196192
-0.188828
-0.179102
-0.165948
-0.151618
-0.136535
-0.119155
-0.098655
-0.075690
-0.051013
-0.023116
0.009128
0.040365
0.063453
0.074337
0.076953
0.077209
0.074516
0.070814
-0.298630
-0.296345
-0.291608
-0.286744
-0.283251
-0.282073
-0.282494
-0.283448
-0.284072
-0.284309
-0.284380
-0.284292
-0.283359
-0.278715
-0.269350
-0.258048
-0.247660
-0.239261
-0.231375
-0.220816
-0.207218
-0.192567
-0.176540
-0.157589
-0.135472
-0.111337
-0.086228
-0.060952
-0.034135
-0.005108
0.020656
0.043043
0.060855
0.071221
0.076350
0.077634
-0.342146
-0.339839
-0.335082
-0.330302
-0.326941
-0.325814
-0.326230
-0.327183
-0.327814
-0.328056
-0.328127
-0.328032
-0.326826
-0.321451
-0.311600
-0.300474
-0.290489
-0.282245
-0.273760
-0.262398
-0.248374
-0.233154
-0.215766
-0.195005
-0.171545
-0.146782
-0.121574
-0.096373
-0.071575
-0.046813
-0.022888
-0.000948
0.016391
0.027618
0.035397
0.040143
-0.385658
-0.383336
-0.378566
-0.373870
-0.370637
-0.369554
-0.369967
-0.370919
-0.371556
-0.371802
-0.371874
-0.371766
-0.370177
-0.364054
-0.353855
-0.342977
-0.333318
-0.325118
-0.316007
-0.303848
-0.289312
-0.273122
-0.253994
-0.231555
-0.207218
-0.182193
-0.157016
-0.132010
-0.107562
-0.084317
-0.063567
-0.045028
-0.029021
-0.017377
-0.009967
-0.006119
-0.429166
-0.426832
-0.422055
-0.417446
-0.414337
-0.413295
-0.413704
-0.414656
-0.415298
-0.415549
-0.415621
-0.415490
-0.413416
-0.406575
-0.396167
-0.385555
-0.376181
-0.367889
-0.358093
-0.345120
-0.329849
-0.312192
-0.291177
-0.267506
-0.242729
-0.217652
-0.192619
-0.167998
-0.144333
-0.122438
-0.102866
-0.085554
-0.071675
-0.061773
-0.055141
-0.051771
-0.472669
-0.470324
-0.465548
-0.461032
-0.458041
-0.457035
-0.457441
-0.458392
-0.459040
-0.459295
-0.459368
-0.459201
-0.456573
-0.449071
-0.438556
-0.428202
-0.419058
-0.410520
-0.399982
-0.386124
-0.369712
-0.350237
-0.327583
-0.303194
-0.278251
-0.253240
-0.228488
-0.204466
-0.181806
-0.161149
-0.142716
-0.126635
-0.113875
-0.104690
-0.098549
-0.095419
-0.516167
-0.513814
-0.509047
-0.504626
-0.501748
-0.500776
-0.501179
-0.502128
-0.502782
-0.503042
-0.503115
-0.502877
-0.499657
-0.491546
-0.481004
-0.470871
-0.461887
-0.452995
-0.441611
-0.426654
-0.408623
-0.387308
-0.363542
-0.338815
-0.313853
-0.289025
-0.264736
-0.241505
-0.219932
-0.200417
-0.183035
-0.168095
-0.156332
-0.147777
-0.142050
-0.139128
-0.559659
-0.557300
-0.552550
-0.548229
-0.545459
-0.544517
-0.544916
-0.545864
-0.546523
-0.546788
-0.546861
-0.546489
-0.542642
-0.533993
-0.523500
-0.513558
-0.504647
-0.495283
-0.482843
-0.466414
-0.446493
-0.423664
-0.399295
-0.374456
-0.349594
-0.325104
-0.301456
-0.279149
-0.258659
-0.240185
-0.223780
-0.209868
-0.198965
-0.190960
-0.185594
-0.182855
-0.603146
-0.600785
-0.596060
-0.591839
-0.589171
-0.588258
-0.588654
-0.589600
-0.590265
-0.590535
-0.590606
-0.590017
-0.585517
-0.576427
-0.566046
-0.556286
-0.547339
-0.537286
-0.523432
-0.505151
-0.483453
-0.459632
-0.435001
-0.410194
-0.385561
-0.361577
-0.338702
-0.317370
-0.297909
-0.280393
-0.264901
-0.251900
-0.241737
-0.234219
-0.229176
-0.226598
-0.646629
-0.644269
-0.639576
-0.635456
-0.632885
-0.631999
-0.632392
-0.633336
-0.634007
-0.634282
-0.634349
-0.633451
-0.628286
-0.618864
-0.608640
-0.599026
-0.589902
-0.578810
-0.563074
-0.542828
-0.519783
-0.495447
-0.470745
-0.446084
-0.421846
-0.398520
-0.376517
-0.356159
-0.337634
-0.320987
-0.306367
-0.294184
-0.284639
-0.277545
-0.272787
-0.270353
-0.690109
-0.687755
-0.683100
-0.679080
-0.676602
-0.675740
-0.676129
-0.677072
-0.677749
-0.678029
-0.678088
-0.676794
-0.670972
-0.661320
-0.651241
-0.641723
-0.632202
-0.619579
-0.601622
-0.579668
-0.555794
-0.531255
-0.506606
-0.482209
-0.458521
-0.435968
-0.414881
-0.395472
-0.377803
-0.361942
-0.348127
-0.336677
-0.327660
-0.320934
-0.316423
-0.314120
-0.733589
-0.731242
-0.726631
-0.722712
-0.720321
-0.719481
-0.719867
-0.720807
-0.721490
-0.721775
-0.721820
-0.720061
-0.713598
-0.703800
-0.693832
-0.684316
-0.673988
-0.659289
-0.639134
-0.615974
-0.591701
-0.567135
-0.542656
-0.518668
-0.495644
-0.473914
-0.453714
-0.435188
-0.418331
-0.403209
-0.390118
-0.379315
-0.370774
-0.364378
-0.360087
-0.357897
-0.777070
-0.774733
-0.770169
-0.766349
-0.764041
-0.763222
-0.763605
-0.764543
-0.765232
-0.765522
-0.765540
-0.763264
-0.756195
-0.746338
-0.736438
-0.726735
-0.714995
-0.697841
-0.675894
-0.652042
-0.627629
-0.603154
-0.578983
-0.555559
-0.533288
-0.512384
-0.492984
-0.475227
-0.459125
-0.444716
-0.432287
-0.422057
-0.413952
-0.407866
-0.403776
-0.401688
-0.820552
-0.818228
-0.813714
-0.809992
-0.807763
-0.806964
-0.807343
-0.808279
-0.808973
-0.809269
-0.809233
-0.806404
-0.798781
-0.788911
-0.779006
-0.768743
-0.754958
-0.735362
-0.712226
-0.688050
-0.663639
-0.639364
-0.615652
-0.592916
-0.571453
-0.551368
-0.532706
-0.515600
-0.500152
-0.486417
-0.474606
-0.464889
-0.457181
-0.451385
-0.447485
-0.445490
-0.864036
-0.861726
-0.857266
-0.853639
-0.851486
-0.850705
-0.851082
-0.852015
-0.852714
-0.853016
-0.852872
-0.849474
-0.841366
-0.831475
-0.821428
-0.810011
-0.793743
-0.772151
-0.748369
-0.724083
-0.699777
-0.675836
-0.652701
-0.630702
-0.610038
-0.590746
-0.572817
-0.556328
-0.541441
-0.528312
-0.517082
-0.507821
-0.500463
-0.494929
-0.491207
-0.489300
-0.907522
-0.905229
-0.900826
-0.897292
-0.895210
-0.894447
-0.894820
-0.895750
-0.896455
-0.896762
-0.896444
-0.892473
-0.883950
-0.873998
-0.863552
-0.850268
-0.831445
-0.808550
-0.784484
-0.760217
-0.736127
-0.712656
-0.690183
-0.668917
-0.648980
-0.630412
-0.613194
-0.597346
-0.583011
-0.570427
-0.559720
-0.550866
-0.543809
-0.538504
-0.534939
-0.533113
-0.951011
-0.948738
-0.944393
-0.940951
-0.938936
-0.938189
-0.938559
-0.939486
-0.940197
-0.940508
-0.939946
-0.935404
-0.926517
-0.916407
-0.905066
-0.889424
-0.868406
-0.844792
-0.820637
-0.796501
-0.772771
-0.749889
-0.728130
-0.707572
-0.688280
-0.670340
-0.653771
-0.638557
-0.624796
-0.612730
-0.602485
-0.594000
-0.587216
-0.582110
-0.578681
-0.576929
-0.972756
-0.970493
-0.966179
-0.962781
-0.960799
-0.960060
-0.960428
-0.961354
-0.962067
-0.962380
-0.961680
-0.956854
-0.947796
-0.937572
-0.925620
-0.908733
-0.886770
-0.862903
-0.838733
-0.814689
-0.791174
-0.768615
-0.747217
-0.727006
-0.708020
-0.690370
-0.674105
-0.659201
-0.645727
-0.633915
-0.623891
-0.615584
-0.608933
-0.603921
-0.600554
-0.598838
</DataArray>
<DataArray NumberOfComponents="1" format="ascii" type ="Float32" Name="u">
0.000000
-0.020630
-0.020387
-0.019855
-0.019173
-0.019132
-0.019727
-0.020546
-0.021204
-0.021636
-0.021909
-0.022126
-0.022388
-0.022841
-0.023838
-0.024812
-0.025125
-0.024725
-0.025097
-0.026817
-0.028515
-0.029687
-0.031080
-0.033523
-0.036423
-0.039103
-0.041210
-0.038350
-0.031482
-0.024642
-0.019291
-0.014878
-0.011164
-0.007900
-0.004798
-0.001755
-0.021008
-0.021008
-0.020888
-0.020602
-0.020207
-0.019987
-0.020093
-0.020465
-0.020940
-0.021396
-0.021788
-0.022138
-0.022501
-0.022947
-0.023595
-0.024261
-0.024617
-0.024556
-0.024607
-0.025447
-0.026546
-0.027203
-0.027883
-0.029791
-0.031693
-0.034457
-0.037491
-0.037546
-0.033230
-0.027165
-0.021724
-0.017378
-0.013541
-0.009978
-0.006619
-0.003349
-0.021309
-0.021309
-0.021264
-0.021132
-0.020922
-0.020725
-0.020650
-0.020742
-0.020977
-0.021295
-0.021643
-0.021998
-0.022367
-0.022774
-0.023263
-0.023784
-0.024184
-0.024342
-0.024374
-0.024679
-0.025280
-0.025873
-0.026374
-0.027302
-0.028230
-0.030282
-0.032517
-0.034383
-0.032651
-0.028261
-0.023024
-0.018612
-0.014719
-0.011061
-0.007578
-0.004165
-0.021514
-0.021514
-0.021505
-0.021455
-0.021354
-0.021226
-0.021122
-0.021094
-0.021166
-0.021329
-0.021560
-0.021836
-0.022146
-0.022493
-0.022890
-0.023322
-0.023714
-0.023973
-0.024078
-0.024209
-0.024510
-0.024923
-0.025324
-0.025878
-0.026543
-0.027583
-0.028690
-0.030382
-0.030354
-0.027745
-0.023288
-0.018894
-0.014909
-0.011230
-0.007653
-0.004105
-0.021628
-0.021628
-0.021633
-0.021622
-0.021581
-0.021510
-0.021429
-0.021369
-0.021361
-0.021416
-0.021537
-0.021714
-0.021939
-0.022208
-0.022523
-0.022874
-0.023220
-0.023502
-0.023671
-0.023782
-0.023943
-0.024194
-0.024485
-0.024847
-0.025298
-0.025895
-0.026579
-0.027401
-0.027739
-0.025862
-0.022585
-0.018471
-0.014495
-0.010980
-0.007330
-0.003669
-0.021669
-0.021669
-0.021679
-0.021685
-0.021673
-0.021638
-0.021585
-0.021530
-0.021493
-0.021491
-0.021535
-0.021629
-0.021771
-0.021960
-0.022193
-0.022461
-0.022743
-0.022999
-0.023189
-0.023313
-0.023423
-0.023569
-0.023753
-0.023982
-0.024266
-0.024618
-0.025031
-0.025489
-0.025550
-0.024039
-0.021274
-0.017542
-0.013737
-0.010300
-0.006629
-0.002941
-0.021661
-0.021661
-0.021671
-0.021681
-0.021682
-0.021666
-0.021634
-0.021592
-0.021550
-0.021524
-0.021525
-0.021561
-0.021637
-0.021754
-0.021910
-0.022100
-0.022310
-0.022516
-0.022688
-0.022811
-0.022898
-0.022981
-0.023080
-0.023201
-0.023351
-0.023529
-0.023725
-0.023900
-0.023786
-0.022690
-0.020214
-0.016891
-0.013171
-0.009294
-0.005668
-0.002062
-0.021620
-0.021620
-0.021629
-0.021639
-0.021644
-0.021637
-0.021616
-0.021584
-0.021547
-0.021512
-0.021491
-0.021491
-0.021519
-0.021579
-0.021671
-0.021791
-0.021931
-0.022077
-0.022208
-0.022307
-0.022370
-0.022410
-0.022442
-0.022476
-0.022514
-0.022554
-0.022583
-0.022556
-0.022305
-0.021408
-0.019464
-0.016491
-0.012869
-0.008818
-0.005152
-0.001550
-0.021558
-0.021558
-0.021566
-0.021574
-0.021579
-0.021575
-0.021560
-0.021534
-0.021500
-0.021463
-0.021431
-0.021410
-0.021405
-0.021423
-0.021463
-0.021525
-0.021604
-0.021690
-0.021770
-0.021829
-0.021859
-0.021859
-0.021836
-0.021796
-0.021742
-0.021668
-0.021560
-0.021379
-0.021011
-0.020187
-0.018558
-0.015950
-0.012610
-0.008857
-0.005127
-0.001444
-0.021480
-0.021480
-0.021486
-0.021492
-0.021495
-0.021491
-0.021478
-0.021454
-0.021423
-0.021386
-0.021348
-0.021313
-0.021287
-0.021274
-0.021275
-0.021290
-0.021317
-0.021349
-0.021377
-0.021391
-0.021380
-0.021338
-0.021264
-0.021161
-0.021027
-0.020856
-0.020633
-0.020325
-0.019849
-0.019024
-0.017579
-0.015302
-0.012276
-0.008772
-0.005103
-0.001407
-0.021379
-0.021379
-0.021385
-0.021389
-0.021390
-0.021385
-0.021371
-0.021349
-0.021318
-0.021280
-0.021239
-0.021196
-0.021156
-0.021120
-0.021092
-0.021072
-0.021056
-0.021042
-0.021023
-0.020991
-0.020936
-0.020851
-0.020730
-0.020570
-0.020366
-0.020112
-0.019792
-0.019376
-0.018800
-0.017939
-0.016591
-0.014559
-0.011823
-0.008561
-0.005022
-0.001381
-0.021241
-0.021241
-0.021245
-0.021249
-0.021248
-0.021242
-0.021228
-0.021206
-0.021175
-0.021138
-0.021094
-0.021046
-0.020996
-0.020946
-0.020897
-0.020849
-0.020802
-0.020751
-0.020692
-0.020618
-0.020522
-0.020395
-0.020229
-0.020018
-0.019755
-0.019430
-0.019027
-0.018519
-0.017855
-0.016943
-0.015636
-0.013770
-0.011278
-0.008251
-0.004883
-0.001353
-0.021030
-0.021030
-0.021035
-0.021038
-0.021037
-0.021031
-0.021017
-0.020996
-0.020967
-0.020930
-0.020886
-0.020836
-0.020781
-0.020722
-0.020660
-0.020594
-0.020524
-0.020446
-0.020356
-0.020249
-0.020117
-0.019954
-0.019749
-0.019495
-0.019181
-0.018797
-0.018326
-0.017742
-0.017004
-0.016041
-0.014744
-0.012984
-0.010683
-0.007874
-0.004696
-0.001317
-0.020689
-0.020689
-0.020694
-0.020697
-0.020698
-0.020694
-0.020683
-0.020665
-0.020640
-0.020606
-0.020565
-0.020517
-0.020462
-0.020400
-0.020332
-0.020257
-0.020174
-0.020079
-0.019970
-0.019840
-0.019684
-0.019493
-0.019259
-0.018971
-0.018620
-0.018191
-0.017668
-0.017026
-0.016230
-0.015222
-0.013923
-0.012233
-0.010077
-0.007461
-0.004477
-0.001274
-0.020122
-0.020122
-0.020128
-0.020134
-0.020138
-0.020138
-0.020133
-0.020122
-0.020104
-0.020078
-0.020044
-0.020003
-0.019954
-0.019897
-0.019833
-0.019758
-0.019673
-0.019575
-0.019458
-0.019320
-0.019152
-0.018949
-0.018699
-0.018394
-0.018021
-0.017566
-0.017011
-0.016333
-0.015499
-0.014464
-0.013164
-0.011526
-0.009487