<VTKFile type="StructuredGrid" version="0.1" byte_order="LittleEndian">
<StructuredGrid WholeExtent="1 71 1 81 0 0">
<Piece Extent="36 71 1 21 0 0">
<PointData></PointData>
<CellData></CellData>
<Points>
<DataArray NumberOfComponents="3" format="ascii" type ="Float32" Name="mesh">
1.500000 0.000000 0.0
1.542857 0.000000 0.0
1.585714 0.000000 0.0
1.628571 0.000000 0.0
1.671429 0.000000 0.0
1.714286 0.000000 0.0
1.757143 0.000000 0.0
1.800000 0.000000 0.0
1.842857 0.000000 0.0
1.885714 0.000000 0.0
1.928571 0.000000 0.0
1.971429 0.000000 0.0
2.014286 0.000000 0.0
2.057143 0.000000 0.0
2.100000 0.000000 0.0
2.142857 0.000000 0.0
2.185714 0.000000 0.0
2.228571 0.000000 0.0
2.271429 0.000000 0.0
2.314286 0.000000 0.0
2.357143 0.000000 0.0
2.400000 0.000000 0.0
2.442857 0.000000 0.0
2.485714 0.000000 0.0
2.528571 0.000000 0.0
2.571429 0.000000 0.0
2.614286 0.000000 0.0
2.657143 0.000000 0.0
2.700000 0.000000 0.0
2.742857 0.000000 0.0
2.785714 0.000000 0.0
2.828571 0.000000 0.0
2.871429 0.000000 0.0
2.914286 0.000000 0.0
2.957143 0.000000 0.0
3.000000 0.000000 0.0
1.500000 0.043750 0.0
1.542857 0.043750 0.0
1.585714 0.043750 0.0
1.628571 0.043750 0.0
1.671429 0.043750 0.0
1.714286 0.043750 0.0
1.757143 0.043750 0.0
1.800000 0.043750 0.0
1.842857 0.043750 0.0
1.885714 0.043750 0.0
1.928571 0.043750 0.0
1.971429 0.043750 0.0
2.014286 0.043750 0.0
2.057143 0.043750 0.0
2.100000 0.043750 0.0
2.142857 0.043750 0.0
2.185714 0.043750 0.0
2.228571 0.043750 0.0
2.271429 0.043750 0.0
2.314286 0.043750 0.0
2.357143 0.043750 0.0
2.400000 0.043750 0.0
2.442857 0.043750 0.0
2.485714 0.043750 0.0
2.528571 0.043750 0.0
2.571429 0.043750 0.0
2.614286 0.043750 0.0
2.657143 0.043750 0.0
2.700000 0.043750 0.0
2.742857 0.043750 0.0
2.785714 0.043750 0.0
2.828571 0.043750 0.0
2.871429 0.043750 0.0
2.914286 0.043750 0.0
2.957143 0.043750 0.0
3.000000 0.043750 0.0
1.500000 0.087500 0.0
1.542857 0.087500 0.0
1.585714 0.087500 0.0
1.628571 0.087500 0.0
1.671429 0.087500 0.0
1.714286 0.087500 0.0
1.757143 0.087500 0.0
1.800000 0.087500 0.0
1.842857 0.087500 0.0
1.885714 0.087500 0.0
1.928571 0.087500 0.0
1.971429 0.087500 0.0
2.014286 0.087500 0.0
2.057143 0.087500 0.0
2.100000 0.087500 0.0
2.142857 0.087500 0.0
2.185714 0.087500 0.0
2.228571 0.087500 0.0
2.271429 0.087500 0.0
2.314286 0.087500 0.0
2.357143 0.087500 0.0
2.400000 0.087500 0.0
2.442857 0.087500 0.0
2.485714 0.087500 0.0
2.528571 0.087500 0.0
2.571429 0.087500 0.0
2.614286 0.087500 0.0
2.657143 0.087500 0.0
2.700000 0.087500 0.0
2.742857 0.087500 0.0
2.785714 0.087500 0.0
2.828571 0.087500 0.0
2.871429 0.087500 0.0
2.914286 0.087500 0.0
2.957143 0.087500 0.0
3.000000 0.087500 0.0
1.500000 0.131250 0.0
1.542857 0.131250 0.0
1.585714 0.131250 0.0
1.628571 0.131250 0.0
1.671429 0.131250 0.0
1.714286 0.131250 0.0
1.757143 0.131250 0.0
1.800000 0.131250 0.0
1.842857 0.131250 0.0
1.885714 0.131250 0.0
1.928571 0.131250 0.0
1.971429 0.131250 0.0
2.014286 0.131250 0.0
2.057143 0.131250 0.0
2.100000 0.131250 0.0
2.142857 0.131250 0.0
2.185714 0.131250 0.0
2.228571 0.131250 0.0
2.271429 0.131250 0.0
2.314286 0.131250 0.0
2.357143 0.131250 0.0
2.400000 0.131250 0.0
2.442857 0.131250 0.0
2.485714 0.131250 0.0
2.528571 0.131250 0.0
2.571429 0.131250 0.0
2.614286 0.131250 0.0
2.657143 0.131250 0.0
2.700000 0.131250 0.0
2.742857 0.131250 0.0
2.785714 0.131250 0.0
2.828571 0.131250 0.0
2.871429 0.131250 0.0
2.914286 0.131250 0.0
2.957143 0.131250 0.0
3.000000 0.131250 0.0
1.500000 0.175000 0.0
1.542857 0.175000 0.0
1.585714 0.175000 0.0
1.628571 0.175000 0.0
1.671429 0.175000 0.0
1.714286 0.175000 0.0
1.757143 0.175000 0.0
1.800000 0.175000 0.0
1.842857 0.175000 0.0
1.885714 0.175000 0.0
1.928571 0.175000 0.0
1.971429 0.175000 0.0
2.014286 0.175000 0.0
2.057143 0.175000 0.0
2.100000 0.175000 0.0
2.142857 0.175000 0.0
2.185714 0.175000 0.0
2.228571 0.175000 0.0
2.271429 0.175000 0.0
2.314286 0.175000 0.0
2.357143 0.175000 0.0
2.400000 0.175000 0.0
2.442857 0.175000 0.0
2.485714 0.175000 0.0
2.528571 0.175000 0.0
2.571429 0.175000 0.0
2.614286 0.175000 0.0
2.657143 0.175000 0.0
2.700000 0.175000 0.0
2.742857 0.175000 0.0
2.785714 0.175000 0.0
2.828571 0.175000 0.0
2.871429 0.175000 0.0
2.914286 0.175000 0.0
2.957143 0.175000 0.0
3.000000 0.175000 0.0
1.500000 0.218750 0.0
1.542857 0.218750 0.0
1.585714 0.218750 0.0
1.628571 0.218750 0.0
1.671429 0.218750 0.0
1.714286 0.218750 0.0
1.757143 0.218750 0.0
1.800000 0.218750 0.0
1.842857 0.218750 0.0
1.885714 0.218750 0.0
1.928571 0.218750 0.0
1.971429 0.218750 0.0
2.014286 0.218750 0.0
2.057143 0.218750 0.0
2.100000 0.218750 0.0
2.142857 0.218750 0.0
2.185714 0.218750 0.0
2.228571 0.218750 0.0
2.271429 0.218750 0.0
2.314286 0.218750 0.0
2.357143 0.218750 0.0
2.400000 0.218750 0.0
2.442857 0.218750 0.0
2.485714 0.218750 0.0
2.528571 0.218750 0.0
2.571429 0.218750 0.0
2.614286 0.218750 0.0
2.657143 0.218750 0.0
2.700000 0.218750 0.0
2.742857 0.218750 0.0
2.785714 0.218750 0.0
2.828571 0.218750 0.0
2.871429 0.218750 0.0
2.914286 0.218750 0.0
2.957143 0.218750 0.0
3.000000 0.218750 0.0
1.500000 0.262500 0.0
1.542857 0.262500 0.0
1.585714 0.262500 0.0
1.628571 0.262500 0.0
1.671429 0.262500 0.0
1.714286 0.262500 0.0
1.757143 0.262500 0.0
1.800000 0.262500 0.0
1.842857 0.262500 0.0
1.885714 0.262500 0.0
1.928571 0.262500 0.0
1.971429 0.262500 0.0
2.014286 0.262500 0.0
2.057143 0.262500 0.0
2.100000 0.262500 0.0
2.142857 0.262500 0.0
2.185714 0.262500 0.0
2.228571 0.262500 0.0
2.271429 0.262500 0.0
2.314286 0.262500 0.0
2.357143 0.262500 0.0
2.400000 0.262500 0.0
2.442857 0.262500 0.0
2.485714 0.262500 0.0
2.528571 0.262500 0.0
2.571429 0.262500 0.0
2.614286 0.262500 0.0
2.657143 0.262500 0.0
2.700000 0.262500 0.0
2.742857 0.262500 0.0
2.785714 0.262500 0.0
2.828571 0.262500 0.0
2.871429 0.262500 0.0
2.914286 0.262500 0.0
2.957143 0.262500 0.0
3.000000 0.262500 0.0
1.500000 0.306250 0.0
1.542857 0.306250 0.0
1.585714 0.306250 0.0
1.628571 0.306250 0.0
1.671429 0.306250 0.0
1.714286 0.306250 0.0
1.757143 0.306250 0.0
1.800000 0.306250 0.0
1.842857 0.306250 0.0
1.885714 0.306250 0.0
1.928571 0.306250 0.0
1.971429 0.306250 0.0
2.014286 0.306250 0.0
2.057143 0.306250 0.0
2.100000 0.306250 0.0
2.142857 0.306250 0.0
2.185714 0.306250 0.0
2.228571 0.306250 0.0
2.271429 0.306250 0.0
2.314286 0.306250 0.0
2.357143 0.306250 0.0
2.400000 0.306250 0.0
2.442857 0.306250 0.0
2.485714 0.306250 0.0
2.528571 0.306250 0.0
2.571429 0.306250 0.0
2.614286 0.306250 0.0
2.657143 0.306250 0.0
2.700000 0.306250 0.0
2.742857 0.306250 0.0
2.785714 0.306250 0.0
2.828571 0.306250 0.0
2.871429 0.306250 0.0
2.914286 0.306250 0.0
2.957143 0.306250 0.0
3.000000 0.306250 0.0
1.500000 0.350000 0.0
1.542857 0.350000 0.0
1.585714 0.350000 0.0
1.628571 0.350000 0.0
1.671429 0.350000 0.0
1.714286 0.350000 0.0
1.757143 0.350000 0.0
1.800000 0.350000 0.0
1.842857 0.350000 0.0
1.885714 0.350000 0.0
1.928571 0.350000 0.0
1.971429 0.350000 0.0
2.014286 0.350000 0.0
2.057143 0.350000 0.0
2.100000 0.350000 0.0
2.142857 0.350000 0.0
2.185714 0.350000 0.0
2.228571 0.350000 0.0
2.271429 0.350000 0.0
2.314286 0.350000 0.0
2.357143 0.350000 0.0
2.400000 0.350000 0.0
2.442857 0.350000 0.0
2.485714 0.350000 0.0
2.528571 0.350000 0.0
2.571429 0.350000 0.0
2.614286 0.350000 0.0
2.657143 0.350000 0.0
2.700000 0.350000 0.0
2.742857 0.350000 0.0
2.785714 0.350000 0.0
2.828571 0.350000 0.0
2.871429 0.350000 0.0
2.914286 0.350000 0.0
2.957143 0.350000 0.0
3.000000 0.350000 0.0
1.500000 0.393750 0.0
1.542857 0.393750 0.0
1.585714 0.393750 0.0
1.628571 0.393750 0.0
1.671429 0.393750 0.0
1.714286 0.393750 0.0
1.757143 0.393750 0.0
1.800000 0.393750 0.0
1.842857 0.393750 0.0
1.885714 0.393750 0.0
1.928571 0.393750 0.0
1.971429 0.393750 0.0
2.014286 0.393750 0.0
2.057143 0.393750 0.0
2.100000 0.393750 0.0
2.142857 0.393750 0.0
2.185714 0.393750 0.0
2.228571 0.393750 0.0
2.271429 0.393750 0.0
2.314286 0.393750 0.0
2.357143 0.393750 0.0
2.400000 0.393750 0.0
2.442857 0.393750 0.0
2.485714 0.393750 0.0
2.528571 0.393750 0.0
2.571429 0.393750 0.0
2.614286 0.393750 0.0
2.657143 0.393750 0.0
2.700000 0.393750 0.0
2.742857 0.393750 0.0
2.785714 0.393750 0.0
2.828571 0.393750 0.0
2.871429 0.393750 0.0
2.914286 0.393750 0.0
2.957143 0.393750 0.0
3.000000 0.393750 0.0
1.500000 0.437500 0.0
1.542857 0.437500 0.0
1.585714 0.437500 0.0
1.628571 0.437500 0.0
1.671429 0.437500 0.0
1.714286 0.437500 0.0
1.757143 0.437500 0.0
1.800000 0.437500 0.0
1.842857 0.437500 0.0
1.885714 0.437500 0.0
1.928571 0.437500 0.0
1.971429 0.437500 0.0
2.014286 0.437500 0.0
2.057143 0.437500 0.0
2.100000 0.437500 0.0
2.142857 0.437500 0.0
2.185714 0.437500 0.0
2.228571 0.437500 0.0
2.271429 0.437500 0.0
2.314286 0.437500 0.0
2.357143 0.437500 0.0
2.400000 0.437500 0.0
2.442857 0.437500 0.0
2.485714 0.437500 0.0
2.528571 0.437500 0.0
2.571429 0.437500 0.0
2.614286 0.437500 0.0
2.657143 0.437500 0.0
2.700000 0.437500 0.0
2.742857 0.437500 0.0
2.785714 0.437500 0.0
2.828571 0.437500 0.0
2.871429 0.437500 0.0
2.914286 0.437500 0.0
2.957143 0.437500 0.0
3.000000 0.437500 0.0
1.500000 0.481250 0.0
1.542857 0.481250 0.0
1.585714 0.481250 0.0
1.628571 0.481250 0.0
1.671429 0.481250 0.0
1.714286 0.481250 0.0
1.757143 0.481250 0.0
1.800000 0.481250 0.0
1.842857 0.481250 0.0
1.885714 0.481250 0.0
1.928571 0.481250 0.0
1.971429 0.481250 0.0
2.014286 0.481250 0.0
2.057143 0.481250 0.0
2.100000 0.481250 0.0
2.142857 0.481250 0.0
2.185714 0.481250 0.0
2.228571 0.481250 0.0
2.271429 0.481250 0.0
2.314286 0.481250 0.0
2.357143 0.481250 0.0
2.400000 0.481250 0.0
2.442857 0.481250 0.0
2.485714 0.481250 0.0
2.528571 0.481250 0.0
2.571429 0.481250 0.0
2.614286 0.481250 0.0
2.657143 0.481250 0.0
2.700000 0.481250 0.0
2.742857 0.481250 0.0
2.785714 0.481250 0.0
2.828571 0.481250 0.0
2.871429 0.481250 0.0
2.914286 0.481250 0.0
2.957143 0.481250 0.0
3.000000 0.481250 0.0
1.500000 0.525000 0.0
1.542857 0.525000 0.0
1.585714 0.525000 0.0
1.628571 0.525000 0.0
1.671429 0.525000 0.0
1.714286 0.525000 0.0
1.757143 0.525000 0.0
1.800000 0.525000 0.0
1.842857 0.525000 0.0
1.885714 0.525000 0.0
1.928571 0.525000 0.0
1.971429 0.525000 0.0
2.014286 0.525000 0.0
2.057143 0.525000 0.0
2.100000 0.525000 0.0
2.142857 0.525000 0.0
2.185714 0.525000 0.0
2.228571 0.525000 0.0
2.271429 0.525000 0.0
2.314286 0.525000 0.0
2.357143 0.525000 0.0
2.400000 0.525000 0.0
2.442857 0.525000 0.0
2.485714 0.525000 0.0
2.528571 0.525000 0.0
2.571429 0.525000 0.0
2.614286 0.525000 0.0
2.657143 0.525000 0.0
2.700000 0.525000 0.0
2.742857 0.525000 0.0
2.785714 0.525000 0.0
2.828571 0.525000 0.0
2.871429 0.525000 0.0
2.914286 0.525000 0.0
2.957143 0.525000 0.0
3.000000 0.525000 0.0
1.500000 0.568750 0.0
1.542857 0.568750 0.0
1.585714 0.568750 0.0
1.628571 0.568750 0.0
1.671429 0.568750 0.0
1.714286 0.568750 0.0
1.757143 0.568750 0.0
1.800000 0.568750 0.0
1.842857 0.568750 0.0
1.885714 0.568750 0.0
1.928571 0.568750 0.0
1.971429 0.568750 0.0
2.014286 0.568750 0.0
2.057143 0.568750 0.0
2.100000 0.568750 0.0
2.142857 0.568750 0.0
2.185714 0.568750 0.0
2.228571 0.568750 0.0
2.271429 0.568750 0.0
2.314286 0.568750 0.0
2.357143 0.568750 0.0
2.400000 0.568750 0.0
2.442857 0.568750 0.0
2.485714 0.568750 0.0
2.528571 0.568750 0.0
2.571429 0.568750 0.0
2.614286 0.568750 0.0
2.657143 0.568750 0.0
2.700000 0.568750 0.0
2.742857 0.568750 0.0
2.785714 0.568750 0.0
2.828571 0.568750 0.0
2.871429 0.568750 0.0
2.914286 0.568750 0.0
2.957143 0.568750 0.0
3.000000 0.568750 0.0
1.500000 0.612500 0.0
1.542857 0.612500 0.0
1.585714 0.612500 0.0
1.628571 0.612500 0.0
1.671429 0.612500 0.0
1.714286 0.612500 0.0
1.757143 0.612500 0.0
1.800000 0.612500 0.0
1.842857 0.612500 0.0
1.885714 0.612500 0.0
1.928571 0.612500 0.0
1.971429 0.612500 0.0
2.014286 0.612500 0.0
2.057143 0.612500 0.0
2.100000 0.612500 0.0
2.142857 0.612500 0.0
2.185714 0.612500 0.0
2.228571 0.612500 0.0
2.271429 0.612500 0.0
2.314286 0.612500 0.0
2.357143 0.612500 0.0
2.400000 0.612500 0.0
2.442857 0.612500 0.0
2.485714 0.612500 0.0
2.528571 0.612500 0.0
2.571429 0.612500 0.0
2.614286 0.612500 0.0
2.657143 0.612500 0.0
2.700000 0.612500 0.0
2.742857 0.612500 0.0
2.785714 0.612500 0.0
2.828571 0.612500 0.0
2.871429 0.612500 0.0
2.914286 0.612500 0.0
2.957143 0.612500 0.0
3.000000 0.612500 0.0
1.500000 0.656250 0.0
1.542857 0.656250 0.0
1.585714 0.656250 0.0
1.628571 0.656250 0.0
1.671429 0.656250 0.0
1.714286 0.656250 0.0
1.757143 0.656250 0.0
1.800000 0.656250 0.0
1.842857 0.656250 0.0
1.885714 0.656250 0.0
1.928571 0.656250 0.0
1.971429 0.656250 0.0
2.014286 0.656250 0.0
2.057143 0.656250 0.0
2.100000 0.656250 0.0
2.142857 0.656250 0.0
2.185714 0.656250 0.0
2.228571 0.656250 0.0
2.271429 0.656250 0.0
2.314286 0.656250 0.0
2.357143 0.656250 0.0
2.400000 0.656250 0.0
2.442857 0.656250 0.0
2.485714 0.656250 0.0
2.528571 0.656250 0.0
2.571429 0.656250 0.0
2.614286 0.656250 0.0
2.657143 0.656250 0.0
2.700000 0.656250 0.0
2.742857 0.656250 0.0
2.785714 0.656250 0.0
2.828571 0.656250 0.0
2.871429 0.656250 0.0
2.914286 0.656250 0.0
2.957143 0.656250 0.0
3.000000 0.656250 0.0
1.500000 0.700000 0.0
1.542857 0.700000 0.0
1.585714 0.700000 0.0
1.628571 0.700000 0.0
1.671429 0.700000 0.0
1.714286 0.700000 0.0
1.757143 0.700000 0.0
1.800000 0.700000 0.0
1.842857 0.700000 0.0
1.885714 0.700000 0.0
1.928571 0.700000 0.0
1.971429 0.700000 0.0
2.014286 0.700000 0.0
2.057143 0.700000 0.0
2.100000 0.700000 0.0
2.142857 0.700000 0.0
2.185714 0.700000 0.0
2.228571 0.700000 0.0
2.271429 0.700000 0.0
2.314286 0.700000 0.0
2.357143 0.700000 0.0
2.400000 0.700000 0.0
2.442857 0.700000 0.0
2.485714 0.700000 0.0
2.528571 0.700000 0.0
2.571429 0.700000 0.0
2.614286 0.700000 0.0
2.657143 0.700000 0.0
2.700000 0.700000 0.0
2.742857 0.700000 0.0
2.785714 0.700000 0.0
2.828571 0.700000 0.0
2.871429 0.700000 0.0
2.914286 0.700000 0.0
2.957143 0.700000 0.0
3.000000 0.700000 0.0
1.500000 0.743750 0.0
1.542857 0.743750 0.0
1.585714 0.743750 0.0
1.628571 0.743750 0.0
1.671429 0.743750 0.0
1.714286 0.743750 0.0
1.757143 0.743750 0.0
1.800000 0.743750 0.0
1.842857 0.743750 0.0
1.885714 0.743750 0.0
1.928571 0.743750 0.0
1.971429 0.743750 0.0
2.014286 0.743750 0.0
2.057143 0.743750 0.0
2.100000 0.743750 0.0
2.142857 0.743750 0.0
2.185714 0.743750 0.0
2.228571 0.743750 0.0
2.271429 0.743750 0.0
2.314286 0.743750 0.0
2.357143 0.743750 0.0
2.400000 0.743750 0.0
2.442857 0.743750 0.0
2.485714 0.743750 0.0
2.528571 0.743750 0.0
2.571429 0.743750 0.0
2.614286 0.743750 0.0
2.657143 0.743750 0.0
2.700000 0.743750 0.0
2.742857 0.743750 0.0
2.785714 0.743750 0.0
2.828571 0.743750 0.0
2.871429 0.743750 0.0
2.914286 0.743750 0.0
2.957143 0.743750 0.0
3.000000 0.743750 0.0
1.500000 0.787500 0.0
1.542857 0.787500 0.0
1.585714 0.787500 0.0
1.628571 0.787500 0.0
1.671429 0.787500 0.0
1.714286 0.787500 0.0
1.757143 0.787500 0.0
1.800000 0.787500 0.0
1.842857 0.787500 0.0
1.885714 0.787500 0.0
1.928571 0.787500 0.0
1.971429 0.787500 0.0
2.014286 0.787500 0.0
2.057143 0.787500 0.0
2.100000 0.787500 0.0
2.142857 0.787500 0.0
2.185714 0.787500 0.0
2.228571 0.787500 0.0
2.271429 0.787500 0.0
2.314286 0.787500 0.0
2.357143 0.787500 0.0
2.400000 0.787500 0.0
2.442857 0.787500 0.0
2.485714 0.787500 0.0
2.528571 0.787500 0.0
2.571429 0.787500 0.0
2.614286 0.787500 0.0
2.657143 0.787500 0.0
2.700000 0.787500 0.0
2.742857 0.787500 0.0
2.785714 0.787500 0.0
2.828571 0.787500 0.0
2.871429 0.787500 0.0
2.914286 0.787500 0.0
2.957143 0.787500 0.0
3.000000 0.787500 0.0
1.500000 0.831250 0.0
1.542857 0.831250 0.0
1.585714 0.831250 0.0
1.628571 0.831250 0.0
1.671429 0.831250 0.0
1.714286 0.831250 0.0
1.757143 0.831250 0.0
1.800000 0.831250 0.0
1.842857 0.831250 0.0
1.885714 0.831250 0.0
1.928571 0.831250 0.0
1.971429 0.831250 0.0
2.014286 0.831250 0.0
2.057143 0.831250 0.0
2.100000 0.831250 0.0
2.142857 0.831250 0.0
2.185714 0.831250 0.0
2.228571 0.831250 0.0
2.271429 0.831250 0.0
2.314286 0.831250 0.0
2.357143 0.831250 0.0
2.400000 0.831250 0.0
2.442857 0.831250 0.0
2.485714 0.831250 0.0
2.528571 0.831250 0.0
2.571429 0.831250 0.0
2.614286 0.831250 0.0
2.657143 0.831250 0.0
2.700000 0.831250 0.0
2.742857 0.831250 0.0
2.785714 0.831250 0.0
2.828571 0.831250 0.0
2.871429 0.831250 0.0
2.914286 0.831250 0.0
2.957143 0.831250 0.0
3.000000 0.831250 0.0
1.500000 0.875000 0.0
1.542857 0.875000 0.0
1.585714 0.875000 0.0
1.628571 0.875000 0.0
1.671429 0.875000 0.0
1.714286 0.875000 0.0
1.757143 0.875000 0.0
1.800000 0.875000 0.0
1.842857 0.875000 0.0
1.885714 0.875000 0.0
1.928571 0.875000 0.0
1.971429 0.875000 0.0
2.014286 0.875000 0.0
2.057143 0.875000 0.0
2.100000 0.875000 0.0
2.142857 0.875000 0.0
2.185714 0.875000 0.0
2.228571 0.875000 0.0
2.271429 0.875000 0.0
2.314286 0.875000 0.0
2.357143 0.875000 0.0
2.400000 0.875000 0.0
2.442857 0.875000 0.0
2.485714 0.875000 0.0
2.528571 0.875000 0.0
2.571429 0.875000 0.0
2.614286 0.875000 0.0
2.657143 0.875000 0.0
2.700000 0.875000 0.0
2.742857 0.875000 0.0
2.785714 0.875000 0.0
2.828571 0.875000 0.0
2.871429 0.875000 0.0
2.914286 0.875000 0.0
2.957143 0.875000 0.0
3.000000 0.875000 0.0
</DataArray></Points>
<PointData>
<DataArray NumberOfComponents="1" format="ascii" type ="Float32" Name="phi">
1.865787
1.861921
1.850871
1.840366
1.831225
1.823110
1.815997
1.809890
1.804808
1.800786
1.797829
1.795921
1.795053
1.795359
1.796890
1.799536
1.803258
1.808036
1.813850
1.820677
1.828500
1.837290
1.847024
1.857705
1.869370
1.882009
1.895561
1.909983
1.925221
1.941209
1.957906
1.975287
1.993365
2.012337
2.032288
2.042487
1.844377
1.840780
1.829726
1.819106
1.809844
1.801626
1.794421
1.788235
1.783089
1.779015
1.776019
1.774086
1.773207
1.773518
1.775068
1.777748
1.781515
1.786354
1.792243
1.799159
1.807086
1.815995
1.825860
1.836669
1.848435
1.861167
1.874836
1.889411
1.904839
1.921044
1.937978
1.955601
1.973885
1.992936
2.012896
2.023113
1.801538
1.798474
1.787452
1.776613
1.767101
1.758669
1.751277
1.744931
1.739658
1.735479
1.732400
1.730415
1.729515
1.729835
1.731427
1.734174
1.738034
1.742993
1.749031
1.756124
1.764256
1.773406
1.783542
1.794634
1.806656
1.819601
1.833470
1.848298
1.864076
1.880702
1.898108
1.916229
1.934980
1.954341
1.974414
1.984647
1.758632
1.756087
1.745187
1.734174
1.724394
1.715739
1.708155
1.701652
1.696246
1.691951
1.688782
1.686744
1.685821
1.686151
1.687788
1.690610
1.694571
1.699650
1.705830
1.713096
1.721430
1.730819
1.741234
1.752638
1.764991
1.778245
1.792374
1.807404
1.823401
1.840361
1.858204
1.876828
1.896117
1.916002
1.936456
1.946819
1.715644
1.713699
1.703034
1.691787
1.681727
1.672847
1.665072
1.658405
1.652851
1.648427
1.645167
1.643074
1.642127
1.642465
1.644149
1.647054
1.651128
1.656342
1.662675
1.670110
1.678630
1.688243
1.698927
1.710642
1.723347
1.736985
1.751508
1.766861
1.783065
1.800203
1.818322
1.837381
1.857204
1.877684
1.898742
1.909392
1.672576
1.671343
1.661048
1.649473
1.639125
1.630014
1.622036
1.615183
1.609464
1.604908
1.601556
1.599405
1.598431
1.598777
1.600509
1.603499
1.607691
1.613058
1.619574
1.627207
1.635927
1.645740
1.656652
1.668651
1.681694
1.695720
1.710681
1.726500
1.743108
1.760506
1.778775
1.798039
1.818253
1.839295
1.861000
1.871978
1.629446
1.628983
1.619188
1.607269
1.596607
1.587242
1.579032
1.571975
1.566082
1.561393
1.557948
1.555733
1.554731
1.555087
1.556868
1.559944
1.564254
1.569779
1.576491
1.584359
1.593335
1.603392
1.614532
1.626757
1.640067
1.654438
1.669824
1.686135
1.703276
1.721180
1.739790
1.759187
1.779511
1.800888
1.823155
1.834447
1.586225
1.586586
1.577451
1.565169
1.554159
1.544511
1.536052
1.528778
1.522708
1.517889
1.514344
1.512061
1.511029
1.511395
1.513228
1.516392
1.520820
1.526500
1.533408
1.541518
1.550779
1.561151
1.572609
1.585115
1.598655
1.613254
1.628963
1.645727
1.663409
1.681910
1.701104
1.720921
1.741419
1.762839
1.785316
1.796807
1.543016
1.544233
1.535795
1.523145
1.511765
1.501814
1.493093
1.485599
1.479358
1.474402
1.470745
1.468389
1.467325
1.467703
1.469593
1.472852
1.477405
1.483237
1.490331
1.498675
1.508223
1.518925
1.530765
1.543673
1.557576
1.572441
1.588335
1.605361
1.623487
1.642562
1.662407
1.682883
1.703921
1.725559
1.748004
1.759465
1.499905
1.501995
1.494204
1.481190
1.469425
1.459155
1.450167
1.442458
1.436044
1.430934
1.427150
1.424717
1.423621
1.424011
1.425962
1.429328
1.434029
1.440033
1.447311
1.455862
1.465670
1.476692
1.488910
1.502262
1.516658
1.531989
1.548200
1.565392
1.583702
1.603164
1.623612
1.644796
1.666560
1.688827
1.711595
1.723107
1.456814
1.459792
1.452678
1.439317
1.427149
1.416554
1.407303
1.399374
1.392763
1.387475
1.383560
1.381048
1.379915
1.380318
1.382332
1.385809
1.390676
1.396891
1.404401
1.413174
1.423200
1.434487
1.447041
1.460811
1.475711
1.491612
1.508388
1.525992
1.544484
1.564040
1.584797
1.606598
1.629122
1.652180
1.675678
1.687523
1.413743
1.417617
1.411224
1.397557
1.384982
1.374053
1.364523
1.356340
1.349499
1.344023
1.339975
1.337381
1.336210
1.336626
1.338702
1.342290
1.347324
1.353765
1.361559
1.370636
1.380945
1.392483
1.405273
1.419352
1.434695
1.451160
1.468590
1.486857
1.505868
1.525649
1.546427
1.568447
1.591568
1.615429
1.639780
1.652051
1.370695
1.375464
1.369833
1.355945
1.342976
1.331672
1.321815
1.313340
1.306248
1.300579
1.296397
1.293715
1.292505
1.292938
1.295078
1.298775
1.303970
1.310630
1.318713
1.328147
1.338853
1.350771
1.363860
1.378150
1.393739
1.410637
1.428685
1.447677
1.467435
1.487851
1.508932
1.530931
1.554160
1.578568
1.603743
1.616452
1.327676
1.333331
1.328484
1.314474
1.301137
1.289394
1.279165
1.270371
1.263015
1.257150
1.252828
1.250054
1.248802
1.249254
1.251472
1.255284
1.260632
1.267492
1.275847
1.285633
1.296771
1.309187
1.322772
1.337437
1.353233
1.370308
1.388725
1.408350
1.428911
1.450163
1.471991
1.494381
1.517574
1.541989
1.567600
1.580649
1.284702
1.291229
1.287164
1.273117
1.259440
1.247211
1.236573
1.227439
1.219814
1.213746
1.209274
1.206400
1.205099
1.205571
1.207882
1.211840
1.217369
1.224424
1.233006
1.243099
1.254645
1.267565
1.281741
1.297021
1.313313
1.330635
1.349135
1.369036
1.390243
1.412354
1.435088
1.458310
1.481997
1.506389
1.531848
1.544879
1.241709
1.249088
1.245865
1.231836
1.217858
1.205130
1.194054
1.184566
1.176660
1.170370
1.165734
1.162752
1.161392
1.161880
1.164291
1.168425
1.174192
1.181510
1.190337
1.200660
1.212511
1.225865
1.240612
1.256584
1.273618
1.291571
1.310389
1.330327
1.351685
1.374397
1.398036
1.422233
1.446836
1.471805
1.497292
1.510200
1.198743
1.206937
1.204619
1.190653
1.176375
1.163172
1.151635
1.141770
1.133551
1.127015
1.122203
1.119103
1.117679
1.118179
1.120688
1.125004
1.131036
1.138698
1.147890
1.158528
1.170623
1.184228
1.199396
1.216005
1.233829
1.252632
1.272228
1.292583
1.313931
1.336687
1.360862
1.385999
1.411638
1.437587
1.463806
1.476979
1.155889
1.164734
1.163290
1.149565
1.134993
1.121347
1.109327
1.099046
1.090480
1.083679
1.078679
1.075449
1.073959
1.074473
1.077079
1.081568
1.087857
1.095869
1.105512
1.116659
1.129188
1.143065
1.158419
1.175384
1.193868
1.213547
1.234099
1.255340
1.277223
1.299984
1.324084
1.349691
1.376286
1.403316
1.430590
1.444268
1.113096
1.122314
1.121707
1.108525
1.093721
1.079657
1.067127
1.056393
1.047453
1.040368
1.035160
1.031790
1.030233
1.030772
1.033486
1.038136
1.044652
1.052985
1.063072
1.074804
1.087996
1.102454
1.118149
1.135239
1.153967
1.174289
1.195786
1.218073
1.240955
1.264359
1.288493
1.313925
1.340906
1.368908
1.397302
1.411546
1.070345
1.079648
1.079854
1.067531
1.052569
1.038127
1.025061
1.013827
1.004491
0.997096
0.991654
0.988132
0.986502
0.987076
0.989933
0.994778
1.001510
1.010104
1.020564
1.032837
1.046738
1.062003
1.078461
1.096010
1.114818
1.135254
1.157328
1.180613
1.204628
1.229111
1.253995
1.279486
1.306204
1.334545
1.363903
1.378691
1.027618
1.037044
1.038048
1.026572
1.011528
0.996764
0.983163
0.971394
0.961626
0.953881
0.948171
0.944479
0.942764
0.943376
0.946404
0.951517
0.958572
0.967451
0.978170
0.990813
1.005324
1.021427
1.038840
1.057305
1.076693
1.097211
1.119268
1.143062
1.168116
1.193786
1.219822
1.246156
1.272969
1.300995
1.330568
1.353955
</DataArray>
<DataArray NumberOfComponents="1" format="ascii" type ="Float32" Name="u">
0.000000
0.000000
0.000000
0.000000
0.000000
0.000000
0.000000
0.000000
0.000000
0.000000
0.000000
0.000000
0.000000
0.000000
0.000000
0.000000
0.000000
0.000000
0.000000
0.000000
0.000000
0.000000
0.000000
0.000000
0.000000
0.000000
0.000000
0.000000
0.000000
0.000000
0.000000
0.000000
0.000000
0.000000
0.000000
0.000000
-0.000031
-0.000088
-0.000147
-0.000208
-0.000273
-0.000344
-0.000422
-0.000508
-0.000604
-0.000711
-0.000831
-0.000963
-0.001109
-0.001268
-0.001440
-0.001624
-0.001819
-0.002021
-0.002228
-0.002437
-0.002644
-0.002845
-0.003037
-0.003216
-0.003380
-0.003527
-0.003656
-0.003765
-0.003856
-0.003929
-0.003985
-0.004026
-0.004053
-0.004068
-0.004074
-0.004074
-0.000033
-0.000193
-0.000354
-0.000518
-0.000690
-0.000870
-0.001061
-0.001266
-0.001487
-0.001725
-0.001982
-0.002258
-0.002554
-0.002868
-0.003200
-0.003546
-0.003904
-0.004268
-0.004635
-0.004997
-0.005349
-0.005686
-0.006001
-0.006290
-0.006550
-0.006779
-0.006977
-0.007143
-0.007278
-0.007385
-0.007467
-0.007524
-0.007562
-0.007582
-0.007589
-0.007589
-0.000020
-0.000295
-0.000570
-0.000851
-0.001139
-0.001437
-0.001749
-0.002077
-0.002424
-0.002790
-0.003177
-0.003585
-0.004013
-0.004461
-0.004925
-0.005402
-0.005886
-0.006370
-0.006850
-0.007316
-0.007762
-0.008180
-0.008566
-0.008915
-0.009223
-0.009490
-0.009716
-0.009903
-0.010053
-0.010170
-0.010257
-0.010318
-0.010356
-0.010377
-0.010384
-0.010384
-0.000002
-0.000384
-0.000766
-0.001154
-0.001549
-0.001956
-0.002376
-0.002814
-0.003270
-0.003746
-0.004243
-0.004760
-0.005297
-0.005850
-0.006417
-0.006990
-0.007565
-0.008134
-0.008689
-0.009221
-0.009722
-0.010186
-0.010607
-0.010981
-0.011307
-0.011584
-0.011815
-0.012002
-0.012151
-0.012264
-0.012347
-0.012404
-0.012440
-0.012459
-0.012465
-0.012465
0.000014
-0.000456
-0.000926
-0.001401
-0.001884
-0.002378
-0.002887
-0.003412
-0.003956
-0.004519
-0.005102
-0.005705
-0.006324
-0.006958
-0.007600
-0.008245
-0.008885
-0.009512
-0.010116
-0.010689
-0.011221
-0.011707
-0.012140
-0.012520
-0.012844
-0.013115
-0.013337
-0.013515
-0.013652
-0.013756
-0.013831
-0.013882
-0.013913
-0.013929
-0.013935
-0.013935
0.000024
-0.000511
-0.001046
-0.001586
-0.002135
-0.002694
-0.003268
-0.003859
-0.004468
-0.005098
-0.005746
-0.006413
-0.007096
-0.007791
-0.008491
-0.009190
-0.009879
-0.010548
-0.011186
-0.011784
-0.012333
-0.012826
-0.013259
-0.013631
-0.013943
-0.014199
-0.014404
-0.014565
-0.014688
-0.014779
-0.014844
-0.014887
-0.014914
-0.014927
-0.014932
-0.014932
0.000027
-0.000552
-0.001132
-0.001716
-0.002309
-0.002914
-0.003534
-0.004172
-0.004830
-0.005509
-0.006208
-0.006927
-0.007661
-0.008406
-0.009155
-0.009899
-0.010628
-0.011331
-0.011995
-0.012610
-0.013166
-0.013657
-0.014080
-0.014436
-0.014728
-0.014961
-0.015144
-0.015284
-0.015389
-0.015465
-0.015519
-0.015554
-0.015576
-0.015587
-0.015591
-0.015591
0.000024
-0.000582
-0.001189
-0.001801
-0.002423
-0.003058
-0.003711
-0.004384
-0.005079
-0.005798
-0.006540
-0.007303
-0.008084
-0.008876
-0.009670
-0.010457
-0.011224
-0.011957
-0.012642
-0.013268
-0.013824
-0.014306
-0.014711
-0.015042
-0.015306
-0.015511
-0.015666
-0.015782
-0.015866
-0.015926
-0.015967
-0.015994
-0.016011
-0.016019
-0.016022
-0.016022
0.000019
-0.000604
-0.001227
-0.001855
-0.002495
-0.003151
-0.003828
-0.004529
-0.005257
-0.006012
-0.006794
-0.007602
-0.008430
-0.009270
-0.010113
-0.010944
-0.011748
-0.012510
-0.013214
-0.013844
-0.014393
-0.014856
-0.015233
-0.015531
-0.015759
-0.015928
-0.016052
-0.016140
-0.016201
-0.016243
-0.016272
-0.016290
-0.016301
-0.016307
-0.016309
-0.016309
0.000011
-0.000620
-0.001251
-0.001890
-0.002542
-0.003214
-0.003911
-0.004638
-0.005397
-0.006191
-0.007017
-0.007874
-0.008754
-0.009648
-0.010544
-0.011423
-0.012267
-0.013056
-0.013772
-0.014401
-0.014932
-0.015364
-0.015702
-0.015956
-0.016140
-0.016268
-0.016354
-0.016412
-0.016448
-0.016472
-0.016487
-0.016497
-0.016503
-0.016506
-0.016507
-0.016507
0.000004
-0.000632
-0.001269
-0.001914
-0.002576
-0.003263
-0.003981
-0.004736
-0.005531
-0.006368
-0.007246
-0.008159
-0.009101
-0.010058
-0.011012
-0.011943
-0.012828
-0.013641
-0.014363
-0.014977
-0.015477
-0.015864
-0.016150
-0.016349
-0.016479
-0.016560
-0.016606
-0.016630
-0.016642
-0.016646
-0.016648
-0.016649
-0.016650
-0.016650
-0.016651
-0.016651
-0.000000
-0.000642
-0.001282
-0.001934
-0.002607
-0.003310
-0.004053
-0.004842
-0.005681
-0.006571
-0.007510
-0.008493
-0.009507
-0.010536
-0.011557
-0.012543
-0.013465
-0.014295
-0.015010
-0.015594
-0.016045
-0.016371
-0.016589
-0.016722
-0.016792
-0.016820
-0.016823
-0.016813
-0.016799
-0.016785
-0.016774
-0.016767
-0.016763
-0.016761
-0.016760
-0.016760
-0.000000
-0.000648
-0.001294
-0.001954
-0.002641
-0.003367
-0.004142
-0.004973
-0.005867
-0.006823
-0.007838
-0.008903
-0.010003
-0.011114
-0.012207
-0.013249
-0.014203
-0.015037
-0.015726
-0.016259
-0.016640
-0.016885
-0.017021
-0.017077
-0.017080
-0.017053
-0.017012
-0.016969
-0.016930
-0.016899
-0.016876
-0.016861
-0.016852
-0.016848
-0.016847
-0.016847
0.000007
-0.000650
-0.001307
-0.001980
-0.002687
-0.003442
-0.004259
-0.005147
-0.006109
-0.007148
-0.008255
-0.009419
-0.010617
-0.011820
-0.012989
-0.014082
-0.015055
-0.015872
-0.016510
-0.016966
-0.017251
-0.017396
-0.017437
-0.017408
-0.017341
-0.017258
-0.017175
-0.017101
-0.017039
-0.016992
-0.016958
-0.016936
-0.016923
-0.016918
-0.016915
-0.016915
0.000027
-0.000648
-0.001321
-0.002015
-0.002751
-0.003548
-0.004421
-0.005381
-0.006431
-0.007571
-0.008790
-0.010070
-0.011380
-0.012680
-0.013922
-0.015053
-0.016023
-0.016795
-0.017351
-0.017697
-0.017863
-0.017891
-0.017825
-0.017708
-0.017571
-0.017435
-0.017312
-0.017209
-0.017127
-0.017066
-0.017022
-0.016994
-0.016978
-0.016971
-0.016968
-0.016968
0.000061
-0.000641
-0.001340
-0.002066
-0.002845
-0.003699
-0.004647
-0.005699
-0.006859
-0.008122
-0.009474
-0.010885
-0.012316
-0.013715
-0.015020
-0.016167
-0.017102
-0.017790
-0.018225
-0.018431
-0.018454
-0.018350
-0.018174
-0.017969
-0.017766
-0.017581
-0.017423
-0.017295
-0.017196
-0.017122
-0.017071
-0.017038
-0.017019
-0.017009
-0.017006
-0.017006
0.000115