<VTKFile type="StructuredGrid" version="0.1" byte_order="LittleEndian">
<StructuredGrid WholeExtent="1 71 1 81 0 0">
<Piece Extent="36 71 61 81 0 0">
<PointData></PointData>
<CellData></CellData>
<Points>
<DataArray NumberOfComponents="3" format="ascii" type ="Float32" Name="mesh">
1.500000 2.625000 0.0
1.542857 2.625000 0.0
1.585714 2.625000 0.0
1.628571 2.625000 0.0
1.671429 2.625000 0.0
1.714286 2.625000 0.0
1.757143 2.625000 0.0
1.800000 2.625000 0.0
1.842857 2.625000 0.0
1.885714 2.625000 0.0
1.928571 2.625000 0.0
1.971429 2.625000 0.0
2.014286 2.625000 0.0
2.057143 2.625000 0.0
2.100000 2.625000 0.0
2.142857 2.625000 0.0
2.185714 2.625000 0.0
2.228571 2.625000 0.0
2.271429 2.625000 0.0
2.314286 2.625000 0.0
2.357143 2.625000 0.0
2.400000 2.625000 0.0
2.442857 2.625000 0.0
2.485714 2.625000 0.0
2.528571 2.625000 0.0
2.571429 2.625000 0.0
2.614286 2.625000 0.0
2.657143 2.625000 0.0
2.700000 2.625000 0.0
2.742857 2.625000 0.0
2.785714 2.625000 0.0
2.828571 2.625000 0.0
2.871429 2.625000 0.0
2.914286 2.625000 0.0
2.957143 2.625000 0.0
3.000000 2.625000 0.0
1.500000 2.668750 0.0
1.542857 2.668750 0.0
1.585714 2.668750 0.0
1.628571 2.668750 0.0
1.671429 2.668750 0.0
1.714286 2.668750 0.0
1.757143 2.668750 0.0
1.800000 2.668750 0.0
1.842857 2.668750 0.0
1.885714 2.668750 0.0
1.928571 2.668750 0.0
1.971429 2.668750 0.0
2.014286 2.668750 0.0
2.057143 2.668750 0.0
2.100000 2.668750 0.0
2.142857 2.668750 0.0
2.185714 2.668750 0.0
2.228571 2.668750 0.0
2.271429 2.668750 0.0
2.314286 2.668750 0.0
2.357143 2.668750 0.0
2.400000 2.668750 0.0
2.442857 2.668750 0.0
2.485714 2.668750 0.0
2.528571 2.668750 0.0
2.571429 2.668750 0.0
2.614286 2.668750 0.0
2.657143 2.668750 0.0
2.700000 2.668750 0.0
2.742857 2.668750 0.0
2.785714 2.668750 0.0
2.828571 2.668750 0.0
2.871429 2.668750 0.0
2.914286 2.668750 0.0
2.957143 2.668750 0.0
3.000000 2.668750 0.0
1.500000 2.712500 0.0
1.542857 2.712500 0.0
1.585714 2.712500 0.0
1.628571 2.712500 0.0
1.671429 2.712500 0.0
1.714286 2.712500 0.0
1.757143 2.712500 0.0
1.800000 2.712500 0.0
1.842857 2.712500 0.0
1.885714 2.712500 0.0
1.928571 2.712500 0.0
1.971429 2.712500 0.0
2.014286 2.712500 0.0
2.057143 2.712500 0.0
2.100000 2.712500 0.0
2.142857 2.712500 0.0
2.185714 2.712500 0.0
2.228571 2.712500 0.0
2.271429 2.712500 0.0
2.314286 2.712500 0.0
2.357143 2.712500 0.0
2.400000 2.712500 0.0
2.442857 2.712500 0.0
2.485714 2.712500 0.0
2.528571 2.712500 0.0
2.571429 2.712500 0.0
2.614286 2.712500 0.0
2.657143 2.712500 0.0
2.700000 2.712500 0.0
2.742857 2.712500 0.0
2.785714 2.712500 0.0
2.828571 2.712500 0.0
2.871429 2.712500 0.0
2.914286 2.712500 0.0
2.957143 2.712500 0.0
3.000000 2.712500 0.0
1.500000 2.756250 0.0
1.542857 2.756250 0.0
1.585714 2.756250 0.0
1.628571 2.756250 0.0
1.671429 2.756250 0.0
1.714286 2.756250 0.0
1.757143 2.756250 0.0
1.800000 2.756250 0.0
1.842857 2.756250 0.0
1.885714 2.756250 0.0
1.928571 2.756250 0.0
1.971429 2.756250 0.0
2.014286 2.756250 0.0
2.057143 2.756250 0.0
2.100000 2.756250 0.0
2.142857 2.756250 0.0
2.185714 2.756250 0.0
2.228571 2.756250 0.0
2.271429 2.756250 0.0
2.314286 2.756250 0.0
2.357143 2.756250 0.0
2.400000 2.756250 0.0
2.442857 2.756250 0.0
2.485714 2.756250 0.0
2.528571 2.756250 0.0
2.571429 2.756250 0.0
2.614286 2.756250 0.0
2.657143 2.756250 0.0
2.700000 2.756250 0.0
2.742857 2.756250 0.0
2.785714 2.756250 0.0
2.828571 2.756250 0.0
2.871429 2.756250 0.0
2.914286 2.756250 0.0
2.957143 2.756250 0.0
3.000000 2.756250 0.0
1.500000 2.800000 0.0
1.542857 2.800000 0.0
1.585714 2.800000 0.0
1.628571 2.800000 0.0
1.671429 2.800000 0.0
1.714286 2.800000 0.0
1.757143 2.800000 0.0
1.800000 2.800000 0.0
1.842857 2.800000 0.0
1.885714 2.800000 0.0
1.928571 2.800000 0.0
1.971429 2.800000 0.0
2.014286 2.800000 0.0
2.057143 2.800000 0.0
2.100000 2.800000 0.0
2.142857 2.800000 0.0
2.185714 2.800000 0.0
2.228571 2.800000 0.0
2.271429 2.800000 0.0
2.314286 2.800000 0.0
2.357143 2.800000 0.0
2.400000 2.800000 0.0
2.442857 2.800000 0.0
2.485714 2.800000 0.0
2.528571 2.800000 0.0
2.571429 2.800000 0.0
2.614286 2.800000 0.0
2.657143 2.800000 0.0
2.700000 2.800000 0.0
2.742857 2.800000 0.0
2.785714 2.800000 0.0
2.828571 2.800000 0.0
2.871429 2.800000 0.0
2.914286 2.800000 0.0
2.957143 2.800000 0.0
3.000000 2.800000 0.0
1.500000 2.843750 0.0
1.542857 2.843750 0.0
1.585714 2.843750 0.0
1.628571 2.843750 0.0
1.671429 2.843750 0.0
1.714286 2.843750 0.0
1.757143 2.843750 0.0
1.800000 2.843750 0.0
1.842857 2.843750 0.0
1.885714 2.843750 0.0
1.928571 2.843750 0.0
1.971429 2.843750 0.0
2.014286 2.843750 0.0
2.057143 2.843750 0.0
2.100000 2.843750 0.0
2.142857 2.843750 0.0
2.185714 2.843750 0.0
2.228571 2.843750 0.0
2.271429 2.843750 0.0
2.314286 2.843750 0.0
2.357143 2.843750 0.0
2.400000 2.843750 0.0
2.442857 2.843750 0.0
2.485714 2.843750 0.0
2.528571 2.843750 0.0
2.571429 2.843750 0.0
2.614286 2.843750 0.0
2.657143 2.843750 0.0
2.700000 2.843750 0.0
2.742857 2.843750 0.0
2.785714 2.843750 0.0
2.828571 2.843750 0.0
2.871429 2.843750 0.0
2.914286 2.843750 0.0
2.957143 2.843750 0.0
3.000000 2.843750 0.0
1.500000 2.887500 0.0
1.542857 2.887500 0.0
1.585714 2.887500 0.0
1.628571 2.887500 0.0
1.671429 2.887500 0.0
1.714286 2.887500 0.0
1.757143 2.887500 0.0
1.800000 2.887500 0.0
1.842857 2.887500 0.0
1.885714 2.887500 0.0
1.928571 2.887500 0.0
1.971429 2.887500 0.0
2.014286 2.887500 0.0
2.057143 2.887500 0.0
2.100000 2.887500 0.0
2.142857 2.887500 0.0
2.185714 2.887500 0.0
2.228571 2.887500 0.0
2.271429 2.887500 0.0
2.314286 2.887500 0.0
2.357143 2.887500 0.0
2.400000 2.887500 0.0
2.442857 2.887500 0.0
2.485714 2.887500 0.0
2.528571 2.887500 0.0
2.571429 2.887500 0.0
2.614286 2.887500 0.0
2.657143 2.887500 0.0
2.700000 2.887500 0.0
2.742857 2.887500 0.0
2.785714 2.887500 0.0
2.828571 2.887500 0.0
2.871429 2.887500 0.0
2.914286 2.887500 0.0
2.957143 2.887500 0.0
3.000000 2.887500 0.0
1.500000 2.931250 0.0
1.542857 2.931250 0.0
1.585714 2.931250 0.0
1.628571 2.931250 0.0
1.671429 2.931250 0.0
1.714286 2.931250 0.0
1.757143 2.931250 0.0
1.800000 2.931250 0.0
1.842857 2.931250 0.0
1.885714 2.931250 0.0
1.928571 2.931250 0.0
1.971429 2.931250 0.0
2.014286 2.931250 0.0
2.057143 2.931250 0.0
2.100000 2.931250 0.0
2.142857 2.931250 0.0
2.185714 2.931250 0.0
2.228571 2.931250 0.0
2.271429 2.931250 0.0
2.314286 2.931250 0.0
2.357143 2.931250 0.0
2.400000 2.931250 0.0
2.442857 2.931250 0.0
2.485714 2.931250 0.0
2.528571 2.931250 0.0
2.571429 2.931250 0.0
2.614286 2.931250 0.0
2.657143 2.931250 0.0
2.700000 2.931250 0.0
2.742857 2.931250 0.0
2.785714 2.931250 0.0
2.828571 2.931250 0.0
2.871429 2.931250 0.0
2.914286 2.931250 0.0
2.957143 2.931250 0.0
3.000000 2.931250 0.0
1.500000 2.975000 0.0
1.542857 2.975000 0.0
1.585714 2.975000 0.0
1.628571 2.975000 0.0
1.671429 2.975000 0.0
1.714286 2.975000 0.0
1.757143 2.975000 0.0
1.800000 2.975000 0.0
1.842857 2.975000 0.0
1.885714 2.975000 0.0
1.928571 2.975000 0.0
1.971429 2.975000 0.0
2.014286 2.975000 0.0
2.057143 2.975000 0.0
2.100000 2.975000 0.0
2.142857 2.975000 0.0
2.185714 2.975000 0.0
2.228571 2.975000 0.0
2.271429 2.975000 0.0
2.314286 2.975000 0.0
2.357143 2.975000 0.0
2.400000 2.975000 0.0
2.442857 2.975000 0.0
2.485714 2.975000 0.0
2.528571 2.975000 0.0
2.571429 2.975000 0.0
2.614286 2.975000 0.0
2.657143 2.975000 0.0
2.700000 2.975000 0.0
2.742857 2.975000 0.0
2.785714 2.975000 0.0
2.828571 2.975000 0.0
2.871429 2.975000 0.0
2.914286 2.975000 0.0
2.957143 2.975000 0.0
3.000000 2.975000 0.0
1.500000 3.018750 0.0
1.542857 3.018750 0.0
1.585714 3.018750 0.0
1.628571 3.018750 0.0
1.671429 3.018750 0.0
1.714286 3.018750 0.0
1.757143 3.018750 0.0
1.800000 3.018750 0.0
1.842857 3.018750 0.0
1.885714 3.018750 0.0
1.928571 3.018750 0.0
1.971429 3.018750 0.0
2.014286 3.018750 0.0
2.057143 3.018750 0.0
2.100000 3.018750 0.0
2.142857 3.018750 0.0
2.185714 3.018750 0.0
2.228571 3.018750 0.0
2.271429 3.018750 0.0
2.314286 3.018750 0.0
2.357143 3.018750 0.0
2.400000 3.018750 0.0
2.442857 3.018750 0.0
2.485714 3.018750 0.0
2.528571 3.018750 0.0
2.571429 3.018750 0.0
2.614286 3.018750 0.0
2.657143 3.018750 0.0
2.700000 3.018750 0.0
2.742857 3.018750 0.0
2.785714 3.018750 0.0
2.828571 3.018750 0.0
2.871429 3.018750 0.0
2.914286 3.018750 0.0
2.957143 3.018750 0.0
3.000000 3.018750 0.0
1.500000 3.062500 0.0
1.542857 3.062500 0.0
1.585714 3.062500 0.0
1.628571 3.062500 0.0
1.671429 3.062500 0.0
1.714286 3.062500 0.0
1.757143 3.062500 0.0
1.800000 3.062500 0.0
1.842857 3.062500 0.0
1.885714 3.062500 0.0
1.928571 3.062500 0.0
1.971429 3.062500 0.0
2.014286 3.062500 0.0
2.057143 3.062500 0.0
2.100000 3.062500 0.0
2.142857 3.062500 0.0
2.185714 3.062500 0.0
2.228571 3.062500 0.0
2.271429 3.062500 0.0
2.314286 3.062500 0.0
2.357143 3.062500 0.0
2.400000 3.062500 0.0
2.442857 3.062500 0.0
2.485714 3.062500 0.0
2.528571 3.062500 0.0
2.571429 3.062500 0.0
2.614286 3.062500 0.0
2.657143 3.062500 0.0
2.700000 3.062500 0.0
2.742857 3.062500 0.0
2.785714 3.062500 0.0
2.828571 3.062500 0.0
2.871429 3.062500 0.0
2.914286 3.062500 0.0
2.957143 3.062500 0.0
3.000000 3.062500 0.0
1.500000 3.106250 0.0
1.542857 3.106250 0.0
1.585714 3.106250 0.0
1.628571 3.106250 0.0
1.671429 3.106250 0.0
1.714286 3.106250 0.0
1.757143 3.106250 0.0
1.800000 3.106250 0.0
1.842857 3.106250 0.0
1.885714 3.106250 0.0
1.928571 3.106250 0.0
1.971429 3.106250 0.0
2.014286 3.106250 0.0
2.057143 3.106250 0.0
2.100000 3.106250 0.0
2.142857 3.106250 0.0
2.185714 3.106250 0.0
2.228571 3.106250 0.0
2.271429 3.106250 0.0
2.314286 3.106250 0.0
2.357143 3.106250 0.0
2.400000 3.106250 0.0
2.442857 3.106250 0.0
2.485714 3.106250 0.0
2.528571 3.106250 0.0
2.571429 3.106250 0.0
2.614286 3.106250 0.0
2.657143 3.106250 0.0
2.700000 3.106250 0.0
2.742857 3.106250 0.0
2.785714 3.106250 0.0
2.828571 3.106250 0.0
2.871429 3.106250 0.0
2.914286 3.106250 0.0
2.957143 3.106250 0.0
3.000000 3.106250 0.0
1.500000 3.150000 0.0
1.542857 3.150000 0.0
1.585714 3.150000 0.0
1.628571 3.150000 0.0
1.671429 3.150000 0.0
1.714286 3.150000 0.0
1.757143 3.150000 0.0
1.800000 3.150000 0.0
1.842857 3.150000 0.0
1.885714 3.150000 0.0
1.928571 3.150000 0.0
1.971429 3.150000 0.0
2.014286 3.150000 0.0
2.057143 3.150000 0.0
2.100000 3.150000 0.0
2.142857 3.150000 0.0
2.185714 3.150000 0.0
2.228571 3.150000 0.0
2.271429 3.150000 0.0
2.314286 3.150000 0.0
2.357143 3.150000 0.0
2.400000 3.150000 0.0
2.442857 3.150000 0.0
2.485714 3.150000 0.0
2.528571 3.150000 0.0
2.571429 3.150000 0.0
2.614286 3.150000 0.0
2.657143 3.150000 0.0
2.700000 3.150000 0.0
2.742857 3.150000 0.0
2.785714 3.150000 0.0
2.828571 3.150000 0.0
2.871429 3.150000 0.0
2.914286 3.150000 0.0
2.957143 3.150000 0.0
3.000000 3.150000 0.0
1.500000 3.193750 0.0
1.542857 3.193750 0.0
1.585714 3.193750 0.0
1.628571 3.193750 0.0
1.671429 3.193750 0.0
1.714286 3.193750 0.0
1.757143 3.193750 0.0
1.800000 3.193750 0.0
1.842857 3.193750 0.0
1.885714 3.193750 0.0
1.928571 3.193750 0.0
1.971429 3.193750 0.0
2.014286 3.193750 0.0
2.057143 3.193750 0.0
2.100000 3.193750 0.0
2.142857 3.193750 0.0
2.185714 3.193750 0.0
2.228571 3.193750 0.0
2.271429 3.193750 0.0
2.314286 3.193750 0.0
2.357143 3.193750 0.0
2.400000 3.193750 0.0
2.442857 3.193750 0.0
2.485714 3.193750 0.0
2.528571 3.193750 0.0
2.571429 3.193750 0.0
2.614286 3.193750 0.0
2.657143 3.193750 0.0
2.700000 3.193750 0.0
2.742857 3.193750 0.0
2.785714 3.193750 0.0
2.828571 3.193750 0.0
2.871429 3.193750 0.0
2.914286 3.193750 0.0
2.957143 3.193750 0.0
3.000000 3.193750 0.0
1.500000 3.237500 0.0
1.542857 3.237500 0.0
1.585714 3.237500 0.0
1.628571 3.237500 0.0
1.671429 3.237500 0.0
1.714286 3.237500 0.0
1.757143 3.237500 0.0
1.800000 3.237500 0.0
1.842857 3.237500 0.0
1.885714 3.237500 0.0
1.928571 3.237500 0.0
1.971429 3.237500 0.0
2.014286 3.237500 0.0
2.057143 3.237500 0.0
2.100000 3.237500 0.0
2.142857 3.237500 0.0
2.185714 3.237500 0.0
2.228571 3.237500 0.0
2.271429 3.237500 0.0
2.314286 3.237500 0.0
2.357143 3.237500 0.0
2.400000 3.237500 0.0
2.442857 3.237500 0.0
2.485714 3.237500 0.0
2.528571 3.237500 0.0
2.571429 3.237500 0.0
2.614286 3.237500 0.0
2.657143 3.237500 0.0
2.700000 3.237500 0.0
2.742857 3.237500 0.0
2.785714 3.237500 0.0
2.828571 3.237500 0.0
2.871429 3.237500 0.0
2.914286 3.237500 0.0
2.957143 3.237500 0.0
3.000000 3.237500 0.0
1.500000 3.281250 0.0
1.542857 3.281250 0.0
1.585714 3.281250 0.0
1.628571 3.281250 0.0
1.671429 3.281250 0.0
1.714286 3.281250 0.0
1.757143 3.281250 0.0
1.800000 3.281250 0.0
1.842857 3.281250 0.0
1.885714 3.281250 0.0
1.928571 3.281250 0.0
1.971429 3.281250 0.0
2.014286 3.281250 0.0
2.057143 3.281250 0.0
2.100000 3.281250 0.0
2.142857 3.281250 0.0
2.185714 3.281250 0.0
2.228571 3.281250 0.0
2.271429 3.281250 0.0
2.314286 3.281250 0.0
2.357143 3.281250 0.0
2.400000 3.281250 0.0
2.442857 3.281250 0.0
2.485714 3.281250 0.0
2.528571 3.281250 0.0
2.571429 3.281250 0.0
2.614286 3.281250 0.0
2.657143 3.281250 0.0
2.700000 3.281250 0.0
2.742857 3.281250 0.0
2.785714 3.281250 0.0
2.828571 3.281250 0.0
2.871429 3.281250 0.0
2.914286 3.281250 0.0
2.957143 3.281250 0.0
3.000000 3.281250 0.0
1.500000 3.325000 0.0
1.542857 3.325000 0.0
1.585714 3.325000 0.0
1.628571 3.325000 0.0
1.671429 3.325000 0.0
1.714286 3.325000 0.0
1.757143 3.325000 0.0
1.800000 3.325000 0.0
1.842857 3.325000 0.0
1.885714 3.325000 0.0
1.928571 3.325000 0.0
1.971429 3.325000 0.0
2.014286 3.325000 0.0
2.057143 3.325000 0.0
2.100000 3.325000 0.0
2.142857 3.325000 0.0
2.185714 3.325000 0.0
2.228571 3.325000 0.0
2.271429 3.325000 0.0
2.314286 3.325000 0.0
2.357143 3.325000 0.0
2.400000 3.325000 0.0
2.442857 3.325000 0.0
2.485714 3.325000 0.0
2.528571 3.325000 0.0
2.571429 3.325000 0.0
2.614286 3.325000 0.0
2.657143 3.325000 0.0
2.700000 3.325000 0.0
2.742857 3.325000 0.0
2.785714 3.325000 0.0
2.828571 3.325000 0.0
2.871429 3.325000 0.0
2.914286 3.325000 0.0
2.957143 3.325000 0.0
3.000000 3.325000 0.0
1.500000 3.368750 0.0
1.542857 3.368750 0.0
1.585714 3.368750 0.0
1.628571 3.368750 0.0
1.671429 3.368750 0.0
1.714286 3.368750 0.0
1.757143 3.368750 0.0
1.800000 3.368750 0.0
1.842857 3.368750 0.0
1.885714 3.368750 0.0
1.928571 3.368750 0.0
1.971429 3.368750 0.0
2.014286 3.368750 0.0
2.057143 3.368750 0.0
2.100000 3.368750 0.0
2.142857 3.368750 0.0
2.185714 3.368750 0.0
2.228571 3.368750 0.0
2.271429 3.368750 0.0
2.314286 3.368750 0.0
2.357143 3.368750 0.0
2.400000 3.368750 0.0
2.442857 3.368750 0.0
2.485714 3.368750 0.0
2.528571 3.368750 0.0
2.571429 3.368750 0.0
2.614286 3.368750 0.0
2.657143 3.368750 0.0
2.700000 3.368750 0.0
2.742857 3.368750 0.0
2.785714 3.368750 0.0
2.828571 3.368750 0.0
2.871429 3.368750 0.0
2.914286 3.368750 0.0
2.957143 3.368750 0.0
3.000000 3.368750 0.0
1.500000 3.412500 0.0
1.542857 3.412500 0.0
1.585714 3.412500 0.0
1.628571 3.412500 0.0
1.671429 3.412500 0.0
1.714286 3.412500 0.0
1.757143 3.412500 0.0
1.800000 3.412500 0.0
1.842857 3.412500 0.0
1.885714 3.412500 0.0
1.928571 3.412500 0.0
1.971429 3.412500 0.0
2.014286 3.412500 0.0
2.057143 3.412500 0.0
2.100000 3.412500 0.0
2.142857 3.412500 0.0
2.185714 3.412500 0.0
2.228571 3.412500 0.0
2.271429 3.412500 0.0
2.314286 3.412500 0.0
2.357143 3.412500 0.0
2.400000 3.412500 0.0
2.442857 3.412500 0.0
2.485714 3.412500 0.0
2.528571 3.412500 0.0
2.571429 3.412500 0.0
2.614286 3.412500 0.0
2.657143 3.412500 0.0
2.700000 3.412500 0.0
2.742857 3.412500 0.0
2.785714 3.412500 0.0
2.828571 3.412500 0.0
2.871429 3.412500 0.0
2.914286 3.412500 0.0
2.957143 3.412500 0.0
3.000000 3.412500 0.0
1.500000 3.456250 0.0
1.542857 3.456250 0.0
1.585714 3.456250 0.0
1.628571 3.456250 0.0
1.671429 3.456250 0.0
1.714286 3.456250 0.0
1.757143 3.456250 0.0
1.800000 3.456250 0.0
1.842857 3.456250 0.0
1.885714 3.456250 0.0
1.928571 3.456250 0.0
1.971429 3.456250 0.0
2.014286 3.456250 0.0
2.057143 3.456250 0.0
2.100000 3.456250 0.0
2.142857 3.456250 0.0
2.185714 3.456250 0.0
2.228571 3.456250 0.0
2.271429 3.456250 0.0
2.314286 3.456250 0.0
2.357143 3.456250 0.0
2.400000 3.456250 0.0
2.442857 3.456250 0.0
2.485714 3.456250 0.0
2.528571 3.456250 0.0
2.571429 3.456250 0.0
2.614286 3.456250 0.0
2.657143 3.456250 0.0
2.700000 3.456250 0.0
2.742857 3.456250 0.0
2.785714 3.456250 0.0
2.828571 3.456250 0.0
2.871429 3.456250 0.0
2.914286 3.456250 0.0
2.957143 3.456250 0.0
3.000000 3.456250 0.0
1.500000 3.500000 0.0
1.542857 3.500000 0.0
1.585714 3.500000 0.0
1.628571 3.500000 0.0
1.671429 3.500000 0.0
1.714286 3.500000 0.0
1.757143 3.500000 0.0
1.800000 3.500000 0.0
1.842857 3.500000 0.0
1.885714 3.500000 0.0
1.928571 3.500000 0.0
1.971429 3.500000 0.0
2.014286 3.500000 0.0
2.057143 3.500000 0.0
2.100000 3.500000 0.0
2.142857 3.500000 0.0
2.185714 3.500000 0.0
2.228571 3.500000 0.0
2.271429 3.500000 0.0
2.314286 3.500000 0.0
2.357143 3.500000 0.0
2.400000 3.500000 0.0
2.442857 3.500000 0.0
2.485714 3.500000 0.0
2.528571 3.500000 0.0
2.571429 3.500000 0.0
2.614286 3.500000 0.0
2.657143 3.500000 0.0
2.700000 3.500000 0.0
2.742857 3.500000 0.0
2.785714 3.500000 0.0
2.828571 3.500000 0.0
2.871429 3.500000 0.0
2.914286 3.500000 0.0
2.957143 3.500000 0.0
3.000000 3.500000 0.0
</DataArray></Points>
<PointData>
<DataArray NumberOfComponents="1" format="ascii" type ="Float32" Name="phi">
-0.022160
-0.022756
-0.024884
-0.028335
-0.033055
-0.038797
-0.045039
-0.051391
-0.057639
-0.063788
-0.069839
-0.075700
-0.081154
-0.085956
-0.090071
-0.093583
-0.096571
-0.099116
-0.101321
-0.103309
-0.105263
-0.107507
-0.110268
-0.113186
-0.115778
-0.117923
-0.119626
-0.120993
-0.122127
-0.123074
-0.123871
-0.124548
-0.125126
-0.125612
-0.125992
-0.137091
-0.066769
-0.067293
-0.069153
-0.072174
-0.076531
-0.082122
-0.088312
-0.094644
-0.100894
-0.107067
-0.113149
-0.119048
-0.124568
-0.129458
-0.133644
-0.137204
-0.140228
-0.142797
-0.145018
-0.147012
-0.148964
-0.151189
-0.153925
-0.156842
-0.159456
-0.161627
-0.163347
-0.164724
-0.165863
-0.166815
-0.167614
-0.168293
-0.168873
-0.169360
-0.169741
-0.169902
-0.110495
-0.111004
-0.112816
-0.115767
-0.120004
-0.125470
-0.131602
-0.137922
-0.144182
-0.150366
-0.156463
-0.162393
-0.167974
-0.172950
-0.177211
-0.180822
-0.183883
-0.186477
-0.188713
-0.190714
-0.192665
-0.194873
-0.197584
-0.200499
-0.203133
-0.205330
-0.207068
-0.208454
-0.209600
-0.210555
-0.211357
-0.212038
-0.212619
-0.213107
-0.213489
-0.213651
-0.154244
-0.154738
-0.156502
-0.159379
-0.163494
-0.168833
-0.174899
-0.181203
-0.187470
-0.193667
-0.199778
-0.205735
-0.211372
-0.216433
-0.220772
-0.224437
-0.227535
-0.230155
-0.232408
-0.234416
-0.236368
-0.238559
-0.241246
-0.244156
-0.246809
-0.249031
-0.250788
-0.252184
-0.253336
-0.254295
-0.255100
-0.255783
-0.256365
-0.256855
-0.257238
-0.257400
-0.198000
-0.198479
-0.200196
-0.203001
-0.207000
-0.212212
-0.218207
-0.224488
-0.230761
-0.236968
-0.243093
-0.249075
-0.254762
-0.259905
-0.264325
-0.268047
-0.271185
-0.273832
-0.276102
-0.278118
-0.280070
-0.282247
-0.284910
-0.287813
-0.290484
-0.292732
-0.294508
-0.295914
-0.297072
-0.298035
-0.298843
-0.299527
-0.300111
-0.300602
-0.300986
-0.301149
-0.241760
-0.242226
-0.243898
-0.246634
-0.250522
-0.255608
-0.261525
-0.267780
-0.274055
-0.280269
-0.286406
-0.292412
-0.298146
-0.303368
-0.307871
-0.311655
-0.314833
-0.317508
-0.319796
-0.321820
-0.323774
-0.325937
-0.328575
-0.331470
-0.334157
-0.336432
-0.338227
-0.339645
-0.340808
-0.341775
-0.342586
-0.343272
-0.343858
-0.344349
-0.344735
-0.344898
-0.285525
-0.285978
-0.287607
-0.290277
-0.294060
-0.299022
-0.304854
-0.311078
-0.317350
-0.323572
-0.329720
-0.335746
-0.341524
-0.346821
-0.351410
-0.355258
-0.358479
-0.361184
-0.363489
-0.365523
-0.367477
-0.369628
-0.372242
-0.375127
-0.377830
-0.380131
-0.381946
-0.383375
-0.384544
-0.385516
-0.386329
-0.387017
-0.387604
-0.388097
-0.388483
-0.388647
-0.329293
-0.329734
-0.331321
-0.333930
-0.337612
-0.342451
-0.348194
-0.354381
-0.360648
-0.366875
-0.373034
-0.379079
-0.384896
-0.390264
-0.394940
-0.398857
-0.402124
-0.404858
-0.407183
-0.409225
-0.411181
-0.413321
-0.415911
-0.418785
-0.421501
-0.423829
-0.425665
-0.427104
-0.428281
-0.429256
-0.430072
-0.430762
-0.431350
-0.431844
-0.432231
-0.432396
-0.373065
-0.373494
-0.375042
-0.377592
-0.381178
-0.385897
-0.391547
-0.397690
-0.403948
-0.410178
-0.416347
-0.422410
-0.428263
-0.433699
-0.438462
-0.442452
-0.445766
-0.448531
-0.450876
-0.452928
-0.454886
-0.457014
-0.459582
-0.462442
-0.465171
-0.467525
-0.469383
-0.470834
-0.472017
-0.472996
-0.473815
-0.474507
-0.475096
-0.475591
-0.475980
-0.476145
-0.416840
-0.417258
-0.418769
-0.421261
-0.424756
-0.429358
-0.434913
-0.441006
-0.447251
-0.453482
-0.459660
-0.465739
-0.471625
-0.477124
-0.481976
-0.486043
-0.489406
-0.492204
-0.494569
-0.496631
-0.498591
-0.500709
-0.503254
-0.506100
-0.508840
-0.511220
-0.513101
-0.514564
-0.515753
-0.516737
-0.517558
-0.518252
-0.518842
-0.519339
-0.519728
-0.519893
-0.460619
-0.461026
-0.462501
-0.464937
-0.468345
-0.472834
-0.478291
-0.484330
-0.490557
-0.496788
-0.502973
-0.509067
-0.514984
-0.520542
-0.525480
-0.529627
-0.533043
-0.535875
-0.538262
-0.540335
-0.542297
-0.544406
-0.546928
-0.549759
-0.552507
-0.554913
-0.556818
-0.558294
-0.559489
-0.560477
-0.561301
-0.561997
-0.562589
-0.563086
-0.563476
-0.563642
-0.504399
-0.504796
-0.506236
-0.508618
-0.511946
-0.516327
-0.521683
-0.527662
-0.533869
-0.540097
-0.546286
-0.552394
-0.558339
-0.563952
-0.568975
-0.573205
-0.576678
-0.579545
-0.581954
-0.584038
-0.586003
-0.588103
-0.590603
-0.593419
-0.596175
-0.598605
-0.600534
-0.602023
-0.603226
-0.604217
-0.605044
-0.605742
-0.606335
-0.606833
-0.607224
-0.607391
-0.548181
-0.548569
-0.549975
-0.552306
-0.555559
-0.559836
-0.565088
-0.571002
-0.577184
-0.583407
-0.589600
-0.595720
-0.601690
-0.607355
-0.612459
-0.616776
-0.620310
-0.623214
-0.625646
-0.627742
-0.629709
-0.631801
-0.634280
-0.637079
-0.639841
-0.642296
-0.644250
-0.645753
-0.646962
-0.647958
-0.648788
-0.649487
-0.650081
-0.650581
-0.650973
-0.651140
-0.591966
-0.592345
-0.593719
-0.596000
-0.599182
-0.603358
-0.608507
-0.614351
-0.620504
-0.626720
-0.632914
-0.639045
-0.645039
-0.650751
-0.655934
-0.660340
-0.663938
-0.666882
-0.669337
-0.671446
-0.673416
-0.675501
-0.677958
-0.680739
-0.683507
-0.685985
-0.687964
-0.689482
-0.690698
-0.691699
-0.692531
-0.693232
-0.693828
-0.694328
-0.694721
-0.694888
-0.635753
-0.636123
-0.637466
-0.639700
-0.642813
-0.646893
-0.651938
-0.657709
-0.663829
-0.670035
-0.676229
-0.682369
-0.688384
-0.694140
-0.699399
-0.703895
-0.707564
-0.710548
-0.713029
-0.715149
-0.717123
-0.719201
-0.721638
-0.724403
-0.727174
-0.729673
-0.731678
-0.733211
-0.734435
-0.735439
-0.736274
-0.736977
-0.737574
-0.738075
-0.738469
-0.738637
-0.679542
-0.679903
-0.681216
-0.683403
-0.686451
-0.690439
-0.695382
-0.701077
-0.707159
-0.713353
-0.719546
-0.725693
-0.731727
-0.737524
-0.742856
-0.747443
-0.751185
-0.754213
-0.756719
-0.758853
-0.760830
-0.762902
-0.765319
-0.768070
-0.770844
-0.773360
-0.775391
-0.776940
-0.778171
-0.779180
-0.780018
-0.780722
-0.781320
-0.781823
-0.782217
-0.782385
-0.723332
-0.723685
-0.724970
-0.727112
-0.730097
-0.733997
-0.738840
-0.744455
-0.750495
-0.756675
-0.762865
-0.769016
-0.775068
-0.780902
-0.786303
-0.790982
-0.794802
-0.797876
-0.800409
-0.802557
-0.804538
-0.806605
-0.809001
-0.811737
-0.814513
-0.817046
-0.819102
-0.820669
-0.821907
-0.822921
-0.823761
-0.824467
-0.825067
-0.825570
-0.825965
-0.826134
-0.767123
-0.767469
-0.768726
-0.770825
-0.773751
-0.777566
-0.782310
-0.787843
-0.793837
-0.799999
-0.806186
-0.812340
-0.818407
-0.824275
-0.829740
-0.834512
-0.838414
-0.841536
-0.844098
-0.846261
-0.848247
-0.850308
-0.852685
-0.855405
-0.858182
-0.860731
-0.862813
-0.864397
-0.865644
-0.866661
-0.867505
-0.868212
-0.868813
-0.869317
-0.869714
-0.869882
-0.810916
-0.811254
-0.812484
-0.814542
-0.817411
-0.821146
-0.825793
-0.831241
-0.837185
-0.843327
-0.849508
-0.855664
-0.861743
-0.867643
-0.873168
-0.878031
-0.882018
-0.885194
-0.887786
-0.889964
-0.891955
-0.894011
-0.896369
-0.899074
-0.901852
-0.904415
-0.906522
-0.908125
-0.909380
-0.910402
-0.911248
-0.911958
-0.912560
-0.913065
-0.913462
-0.913631
-0.854709
-0.855041
-0.856246
-0.858264
-0.861077
-0.864735
-0.869288
-0.874650
-0.880539
-0.886659
-0.892832
-0.898989
-0.905079
-0.911006
-0.916588
-0.921539
-0.925616
-0.928850
-0.931474
-0.933668
-0.935664
-0.937716
-0.940055
-0.942744
-0.945521
-0.948099
-0.950231
-0.951853
-0.953116
-0.954143
-0.954992
-0.955703
-0.956306
-0.956812
-0.957210
-0.957379
-0.876606
-0.876934
-0.878127
-0.880125
-0.882912
-0.886532
-0.891038
-0.896357
-0.902219
-0.908325
-0.914495
-0.920652
-0.926747
-0.932687
-0.938296
-0.943291
-0.947413
-0.950677
-0.953317
-0.955520
-0.957518
-0.959568
-0.961898
-0.964579
-0.967356
-0.969941
-0.972085
-0.973717
-0.974984
-0.976013
-0.976864
-0.977576
-0.978179
-0.978686
-0.979084
-0.979254
</DataArray>
<DataArray NumberOfComponents="1" format="ascii" type ="Float32" Name="u">
-0.000343
0.001843
0.004026
0.006047
0.007825
0.009284
0.010373
0.011095
0.011537
0.011923
0.012888
0.013399
0.013592
0.013593
0.013472
0.013270
0.013014
0.012724
0.012428
0.012170
0.012034
0.012155
0.012646
0.013023
0.013246
0.013357
0.013395
0.013388
0.013357
0.013315
0.013271
0.013230
0.013198
0.013174
0.013161
0.013161
-0.000165
0.001910
0.003987
0.005865
0.007476
0.008777
0.009762
0.010483
0.011058
0.011648
0.012322
0.012743
0.012949
0.013004
0.012954
0.012836
0.012678
0.012510
0.012364
0.012285
0.012322
0.012514
0.012821
0.013081
0.013262
0.013374
0.013433
0.013456
0.013455
0.013439
0.013417
0.013393
0.013371
0.013352
0.013337
0.013337
-0.000123
0.001809
0.003678
0.005384
0.006864
0.008090
0.009071
0.009855
0.010518
0.011124
0.011659
0.012032
0.012261
0.012377
0.012412
0.012394
0.012348
0.012301
0.012280
0.012312
0.012417
0.012593
0.012805
0.012993
0.013139
0.013243
0.013312
0.013352
0.013371
0.013376
0.013372
0.013363
0.013351
0.013339
0.013327
0.013327
-0.000111
0.001647
0.003340
0.004898
0.006272
0.007441
0.008414
0.009223
0.009910
0.010501
0.010989
0.011357
0.011618
0.011793
0.011904
0.011972
0.012019
0.012063
0.012123
0.012215
0.012343
0.012501
0.012666
0.012817
0.012943
0.013042
0.013115
0.013166
0.013199
0.013219
0.013229
0.013232
0.013229
0.013223
0.013216
0.013216
-0.000107
0.001488
0.003028
0.004458
0.005738
0.006852
0.007803
0.008611
0.009298
0.009880
0.010360
0.010742
0.011037
0.011263
0.011435
0.011571
0.011685
0.011793
0.011906
0.012032
0.012172
0.012320
0.012466
0.012600
0.012716
0.012813
0.012889
0.012948
0.012992
0.013022
0.013043
0.013054
0.013059
0.013058
0.013054
0.013054
-0.000104
0.001347
0.002753
0.004070
0.005266
0.006324
0.007246
0.008040
0.008722
0.009302
0.009787
0.010188
0.010516
0.010783
0.011004
0.011190
0.011355
0.011508
0.011656
0.011805
0.011955
0.012102
0.012242
0.012371
0.012484
0.012580
0.012661
0.012726
0.012777
0.012815
0.012843
0.012861
0.012871
0.012874
0.012871
0.012871
-0.000100
0.001225
0.002515
0.003733
0.004852
0.005857
0.006746
0.007523
0.008197
0.008778
0.009273
0.009693
0.010048
0.010350
0.010608
0.010834
0.011036
0.011221
0.011396
0.011563
0.011723
0.011874
0.012015
0.012143
0.012257
0.012356
0.012441
0.012511
0.012568
0.012612
0.012645
0.012668
0.012682
0.012687
0.012685
0.012685
-0.000095
0.001122
0.002311
0.003442
0.004492
0.005448
0.006303
0.007062
0.007728
0.008310
0.008815
0.009252
0.009630
0.009959
0.010248
0.010504
0.010734
0.010945
0.011140
0.011322
0.011492
0.011650
0.011795
0.011926
0.012044
0.012146
0.012235
0.012309
0.012371
0.012420
0.012457
0.012484
0.012500
0.012507
0.012505
0.012505
-0.000089
0.001035
0.002138
0.003193
0.004181
0.005091
0.005915
0.006655
0.007313
0.007895
0.008408
0.008860
0.009257
0.009609
0.009921
0.010201
0.010454
0.010685
0.010897
0.011092
0.011272
0.011437
0.011588
0.011724
0.011845
0.011951
0.012044
0.012123
0.012188
0.012241
0.012281
0.012310
0.012328
0.012336
0.012335
0.012335
-0.000084
0.000962
0.001990
0.002980
0.003914
0.004782
0.005577
0.006299
0.006949
0.007531
0.008050
0.008513
0.008926
0.009295
0.009626
0.009925
0.010196
0.010443
0.010669
0.010876
0.011066
0.011238
0.011395
0.011536
0.011662
0.011773
0.011869
0.011952
0.012020
0.012076
0.012119
0.012150
0.012169
0.012178
0.012177
0.012177
-0.000078
0.000901
0.001866
0.002799
0.003686
0.004517
0.005286
0.005990
0.006632
0.007212
0.007736
0.008208
0.008632
0.009016
0.009362
0.009677
0.009962
0.010222
0.010460
0.010677
0.010875
0.011055
0.011218
0.011364
0.011495
0.011610
0.011710
0.011795
0.011867
0.011925
0.011970
0.012002
0.012023
0.012031
0.012031
0.012031
-0.000073
0.000850
0.001761
0.002645
0.003491
0.004290
0.005035
0.005724
0.006357
0.006935
0.007461
0.007939
0.008373
0.008768
0.009126
0.009452
0.009750
0.010021
0.010269
0.010495
0.010700
0.010887
0.011055
0.011206
0.011341
0.011460
0.011563
0.011652
0.011726
0.011786
0.011832
0.011866
0.011886
0.011895
0.011895
0.011895
-0.000068
0.000807
0.001672
0.002516
0.003326
0.004096
0.004820
0.005494
0.006118
0.006692
0.007220
0.007702
0.008143
0.008545
0.008913
0.009249
0.009556
0.009836
0.010091
0.010324
0.010536
0.010728
0.010901
0.011057
0.011195
0.011317
0.011423
0.011514
0.011590
0.011652
0.011699
0.011733
0.011755
0.011764
0.011763
0.011763
-0.000063
0.000771
0.001597
0.002404
0.003184
0.003928
0.004632
0.005292
0.005907
0.006476
0.007002
0.007487
0.007931
0.008339
0.008713
0.009055
0.009368
0.009655
0.009916
0.010155
0.010371
0.010567
0.010744
0.010903
0.011044
0.011168
0.011276
0.011368
0.011446
0.011508
0.011556
0.011591
0.011612
0.011621
0.011621
0.011621
-0.000060
0.000738
0.001530
0.002305
0.003055
0.003775
0.004459
0.005104
0.005707
0.006270
0.006791
0.007274
0.007719
0.008128
0.008504
0.008849
0.009165
0.009455
0.009719
0.009959
0.010178
0.010376
0.010555
0.010714
0.010856
0.010981
0.011090
0.011183
0.011260
0.011323
0.011371
0.011405
0.011426
0.011435
0.011434
0.011434
-0.000057
0.000705
0.001462
0.002204
0.002924
0.003617
0.004278
0.004903
0.005491
0.006041
0.006552
0.007027
0.007466
0.007870
0.008242
0.008584
0.008898
0.009185
0.009447
0.009685
0.009902
0.010098
0.010274
0.010432
0.010572
0.010695
0.010802
0.010893
0.010969
0.011029
0.011076
0.011109
0.011128
0.011137
0.011135
0.011135
-0.000055
0.000664
0.001378
0.002079
0.002761
0.003418
0.004047
0.004642
0.005204
0.005730
0.006220
0.006675
0.007097