<VTKFile type="StructuredGrid" version="0.1" byte_order="LittleEndian">
<StructuredGrid WholeExtent="1 71 1 81 0 0">
<Piece Extent="36 71 21 41 0 0">
<PointData></PointData>
<CellData></CellData>
<Points>
<DataArray NumberOfComponents="3" format="ascii" type ="Float32" Name="mesh">
1.500000 0.875000 0.0
1.542857 0.875000 0.0
1.585714 0.875000 0.0
1.628571 0.875000 0.0
1.671429 0.875000 0.0
1.714286 0.875000 0.0
1.757143 0.875000 0.0
1.800000 0.875000 0.0
1.842857 0.875000 0.0
1.885714 0.875000 0.0
1.928571 0.875000 0.0
1.971429 0.875000 0.0
2.014286 0.875000 0.0
2.057143 0.875000 0.0
2.100000 0.875000 0.0
2.142857 0.875000 0.0
2.185714 0.875000 0.0
2.228571 0.875000 0.0
2.271429 0.875000 0.0
2.314286 0.875000 0.0
2.357143 0.875000 0.0
2.400000 0.875000 0.0
2.442857 0.875000 0.0
2.485714 0.875000 0.0
2.528571 0.875000 0.0
2.571429 0.875000 0.0
2.614286 0.875000 0.0
2.657143 0.875000 0.0
2.700000 0.875000 0.0
2.742857 0.875000 0.0
2.785714 0.875000 0.0
2.828571 0.875000 0.0
2.871429 0.875000 0.0
2.914286 0.875000 0.0
2.957143 0.875000 0.0
3.000000 0.875000 0.0
1.500000 0.918750 0.0
1.542857 0.918750 0.0
1.585714 0.918750 0.0
1.628571 0.918750 0.0
1.671429 0.918750 0.0
1.714286 0.918750 0.0
1.757143 0.918750 0.0
1.800000 0.918750 0.0
1.842857 0.918750 0.0
1.885714 0.918750 0.0
1.928571 0.918750 0.0
1.971429 0.918750 0.0
2.014286 0.918750 0.0
2.057143 0.918750 0.0
2.100000 0.918750 0.0
2.142857 0.918750 0.0
2.185714 0.918750 0.0
2.228571 0.918750 0.0
2.271429 0.918750 0.0
2.314286 0.918750 0.0
2.357143 0.918750 0.0
2.400000 0.918750 0.0
2.442857 0.918750 0.0
2.485714 0.918750 0.0
2.528571 0.918750 0.0
2.571429 0.918750 0.0
2.614286 0.918750 0.0
2.657143 0.918750 0.0
2.700000 0.918750 0.0
2.742857 0.918750 0.0
2.785714 0.918750 0.0
2.828571 0.918750 0.0
2.871429 0.918750 0.0
2.914286 0.918750 0.0
2.957143 0.918750 0.0
3.000000 0.918750 0.0
1.500000 0.962500 0.0
1.542857 0.962500 0.0
1.585714 0.962500 0.0
1.628571 0.962500 0.0
1.671429 0.962500 0.0
1.714286 0.962500 0.0
1.757143 0.962500 0.0
1.800000 0.962500 0.0
1.842857 0.962500 0.0
1.885714 0.962500 0.0
1.928571 0.962500 0.0
1.971429 0.962500 0.0
2.014286 0.962500 0.0
2.057143 0.962500 0.0
2.100000 0.962500 0.0
2.142857 0.962500 0.0
2.185714 0.962500 0.0
2.228571 0.962500 0.0
2.271429 0.962500 0.0
2.314286 0.962500 0.0
2.357143 0.962500 0.0
2.400000 0.962500 0.0
2.442857 0.962500 0.0
2.485714 0.962500 0.0
2.528571 0.962500 0.0
2.571429 0.962500 0.0
2.614286 0.962500 0.0
2.657143 0.962500 0.0
2.700000 0.962500 0.0
2.742857 0.962500 0.0
2.785714 0.962500 0.0
2.828571 0.962500 0.0
2.871429 0.962500 0.0
2.914286 0.962500 0.0
2.957143 0.962500 0.0
3.000000 0.962500 0.0
1.500000 1.006250 0.0
1.542857 1.006250 0.0
1.585714 1.006250 0.0
1.628571 1.006250 0.0
1.671429 1.006250 0.0
1.714286 1.006250 0.0
1.757143 1.006250 0.0
1.800000 1.006250 0.0
1.842857 1.006250 0.0
1.885714 1.006250 0.0
1.928571 1.006250 0.0
1.971429 1.006250 0.0
2.014286 1.006250 0.0
2.057143 1.006250 0.0
2.100000 1.006250 0.0
2.142857 1.006250 0.0
2.185714 1.006250 0.0
2.228571 1.006250 0.0
2.271429 1.006250 0.0
2.314286 1.006250 0.0
2.357143 1.006250 0.0
2.400000 1.006250 0.0
2.442857 1.006250 0.0
2.485714 1.006250 0.0
2.528571 1.006250 0.0
2.571429 1.006250 0.0
2.614286 1.006250 0.0
2.657143 1.006250 0.0
2.700000 1.006250 0.0
2.742857 1.006250 0.0
2.785714 1.006250 0.0
2.828571 1.006250 0.0
2.871429 1.006250 0.0
2.914286 1.006250 0.0
2.957143 1.006250 0.0
3.000000 1.006250 0.0
1.500000 1.050000 0.0
1.542857 1.050000 0.0
1.585714 1.050000 0.0
1.628571 1.050000 0.0
1.671429 1.050000 0.0
1.714286 1.050000 0.0
1.757143 1.050000 0.0
1.800000 1.050000 0.0
1.842857 1.050000 0.0
1.885714 1.050000 0.0
1.928571 1.050000 0.0
1.971429 1.050000 0.0
2.014286 1.050000 0.0
2.057143 1.050000 0.0
2.100000 1.050000 0.0
2.142857 1.050000 0.0
2.185714 1.050000 0.0
2.228571 1.050000 0.0
2.271429 1.050000 0.0
2.314286 1.050000 0.0
2.357143 1.050000 0.0
2.400000 1.050000 0.0
2.442857 1.050000 0.0
2.485714 1.050000 0.0
2.528571 1.050000 0.0
2.571429 1.050000 0.0
2.614286 1.050000 0.0
2.657143 1.050000 0.0
2.700000 1.050000 0.0
2.742857 1.050000 0.0
2.785714 1.050000 0.0
2.828571 1.050000 0.0
2.871429 1.050000 0.0
2.914286 1.050000 0.0
2.957143 1.050000 0.0
3.000000 1.050000 0.0
1.500000 1.093750 0.0
1.542857 1.093750 0.0
1.585714 1.093750 0.0
1.628571 1.093750 0.0
1.671429 1.093750 0.0
1.714286 1.093750 0.0
1.757143 1.093750 0.0
1.800000 1.093750 0.0
1.842857 1.093750 0.0
1.885714 1.093750 0.0
1.928571 1.093750 0.0
1.971429 1.093750 0.0
2.014286 1.093750 0.0
2.057143 1.093750 0.0
2.100000 1.093750 0.0
2.142857 1.093750 0.0
2.185714 1.093750 0.0
2.228571 1.093750 0.0
2.271429 1.093750 0.0
2.314286 1.093750 0.0
2.357143 1.093750 0.0
2.400000 1.093750 0.0
2.442857 1.093750 0.0
2.485714 1.093750 0.0
2.528571 1.093750 0.0
2.571429 1.093750 0.0
2.614286 1.093750 0.0
2.657143 1.093750 0.0
2.700000 1.093750 0.0
2.742857 1.093750 0.0
2.785714 1.093750 0.0
2.828571 1.093750 0.0
2.871429 1.093750 0.0
2.914286 1.093750 0.0
2.957143 1.093750 0.0
3.000000 1.093750 0.0
1.500000 1.137500 0.0
1.542857 1.137500 0.0
1.585714 1.137500 0.0
1.628571 1.137500 0.0
1.671429 1.137500 0.0
1.714286 1.137500 0.0
1.757143 1.137500 0.0
1.800000 1.137500 0.0
1.842857 1.137500 0.0
1.885714 1.137500 0.0
1.928571 1.137500 0.0
1.971429 1.137500 0.0
2.014286 1.137500 0.0
2.057143 1.137500 0.0
2.100000 1.137500 0.0
2.142857 1.137500 0.0
2.185714 1.137500 0.0
2.228571 1.137500 0.0
2.271429 1.137500 0.0
2.314286 1.137500 0.0
2.357143 1.137500 0.0
2.400000 1.137500 0.0
2.442857 1.137500 0.0
2.485714 1.137500 0.0
2.528571 1.137500 0.0
2.571429 1.137500 0.0
2.614286 1.137500 0.0
2.657143 1.137500 0.0
2.700000 1.137500 0.0
2.742857 1.137500 0.0
2.785714 1.137500 0.0
2.828571 1.137500 0.0
2.871429 1.137500 0.0
2.914286 1.137500 0.0
2.957143 1.137500 0.0
3.000000 1.137500 0.0
1.500000 1.181250 0.0
1.542857 1.181250 0.0
1.585714 1.181250 0.0
1.628571 1.181250 0.0
1.671429 1.181250 0.0
1.714286 1.181250 0.0
1.757143 1.181250 0.0
1.800000 1.181250 0.0
1.842857 1.181250 0.0
1.885714 1.181250 0.0
1.928571 1.181250 0.0
1.971429 1.181250 0.0
2.014286 1.181250 0.0
2.057143 1.181250 0.0
2.100000 1.181250 0.0
2.142857 1.181250 0.0
2.185714 1.181250 0.0
2.228571 1.181250 0.0
2.271429 1.181250 0.0
2.314286 1.181250 0.0
2.357143 1.181250 0.0
2.400000 1.181250 0.0
2.442857 1.181250 0.0
2.485714 1.181250 0.0
2.528571 1.181250 0.0
2.571429 1.181250 0.0
2.614286 1.181250 0.0
2.657143 1.181250 0.0
2.700000 1.181250 0.0
2.742857 1.181250 0.0
2.785714 1.181250 0.0
2.828571 1.181250 0.0
2.871429 1.181250 0.0
2.914286 1.181250 0.0
2.957143 1.181250 0.0
3.000000 1.181250 0.0
1.500000 1.225000 0.0
1.542857 1.225000 0.0
1.585714 1.225000 0.0
1.628571 1.225000 0.0
1.671429 1.225000 0.0
1.714286 1.225000 0.0
1.757143 1.225000 0.0
1.800000 1.225000 0.0
1.842857 1.225000 0.0
1.885714 1.225000 0.0
1.928571 1.225000 0.0
1.971429 1.225000 0.0
2.014286 1.225000 0.0
2.057143 1.225000 0.0
2.100000 1.225000 0.0
2.142857 1.225000 0.0
2.185714 1.225000 0.0
2.228571 1.225000 0.0
2.271429 1.225000 0.0
2.314286 1.225000 0.0
2.357143 1.225000 0.0
2.400000 1.225000 0.0
2.442857 1.225000 0.0
2.485714 1.225000 0.0
2.528571 1.225000 0.0
2.571429 1.225000 0.0
2.614286 1.225000 0.0
2.657143 1.225000 0.0
2.700000 1.225000 0.0
2.742857 1.225000 0.0
2.785714 1.225000 0.0
2.828571 1.225000 0.0
2.871429 1.225000 0.0
2.914286 1.225000 0.0
2.957143 1.225000 0.0
3.000000 1.225000 0.0
1.500000 1.268750 0.0
1.542857 1.268750 0.0
1.585714 1.268750 0.0
1.628571 1.268750 0.0
1.671429 1.268750 0.0
1.714286 1.268750 0.0
1.757143 1.268750 0.0
1.800000 1.268750 0.0
1.842857 1.268750 0.0
1.885714 1.268750 0.0
1.928571 1.268750 0.0
1.971429 1.268750 0.0
2.014286 1.268750 0.0
2.057143 1.268750 0.0
2.100000 1.268750 0.0
2.142857 1.268750 0.0
2.185714 1.268750 0.0
2.228571 1.268750 0.0
2.271429 1.268750 0.0
2.314286 1.268750 0.0
2.357143 1.268750 0.0
2.400000 1.268750 0.0
2.442857 1.268750 0.0
2.485714 1.268750 0.0
2.528571 1.268750 0.0
2.571429 1.268750 0.0
2.614286 1.268750 0.0
2.657143 1.268750 0.0
2.700000 1.268750 0.0
2.742857 1.268750 0.0
2.785714 1.268750 0.0
2.828571 1.268750 0.0
2.871429 1.268750 0.0
2.914286 1.268750 0.0
2.957143 1.268750 0.0
3.000000 1.268750 0.0
1.500000 1.312500 0.0
1.542857 1.312500 0.0
1.585714 1.312500 0.0
1.628571 1.312500 0.0
1.671429 1.312500 0.0
1.714286 1.312500 0.0
1.757143 1.312500 0.0
1.800000 1.312500 0.0
1.842857 1.312500 0.0
1.885714 1.312500 0.0
1.928571 1.312500 0.0
1.971429 1.312500 0.0
2.014286 1.312500 0.0
2.057143 1.312500 0.0
2.100000 1.312500 0.0
2.142857 1.312500 0.0
2.185714 1.312500 0.0
2.228571 1.312500 0.0
2.271429 1.312500 0.0
2.314286 1.312500 0.0
2.357143 1.312500 0.0
2.400000 1.312500 0.0
2.442857 1.312500 0.0
2.485714 1.312500 0.0
2.528571 1.312500 0.0
2.571429 1.312500 0.0
2.614286 1.312500 0.0
2.657143 1.312500 0.0
2.700000 1.312500 0.0
2.742857 1.312500 0.0
2.785714 1.312500 0.0
2.828571 1.312500 0.0
2.871429 1.312500 0.0
2.914286 1.312500 0.0
2.957143 1.312500 0.0
3.000000 1.312500 0.0
1.500000 1.356250 0.0
1.542857 1.356250 0.0
1.585714 1.356250 0.0
1.628571 1.356250 0.0
1.671429 1.356250 0.0
1.714286 1.356250 0.0
1.757143 1.356250 0.0
1.800000 1.356250 0.0
1.842857 1.356250 0.0
1.885714 1.356250 0.0
1.928571 1.356250 0.0
1.971429 1.356250 0.0
2.014286 1.356250 0.0
2.057143 1.356250 0.0
2.100000 1.356250 0.0
2.142857 1.356250 0.0
2.185714 1.356250 0.0
2.228571 1.356250 0.0
2.271429 1.356250 0.0
2.314286 1.356250 0.0
2.357143 1.356250 0.0
2.400000 1.356250 0.0
2.442857 1.356250 0.0
2.485714 1.356250 0.0
2.528571 1.356250 0.0
2.571429 1.356250 0.0
2.614286 1.356250 0.0
2.657143 1.356250 0.0
2.700000 1.356250 0.0
2.742857 1.356250 0.0
2.785714 1.356250 0.0
2.828571 1.356250 0.0
2.871429 1.356250 0.0
2.914286 1.356250 0.0
2.957143 1.356250 0.0
3.000000 1.356250 0.0
1.500000 1.400000 0.0
1.542857 1.400000 0.0
1.585714 1.400000 0.0
1.628571 1.400000 0.0
1.671429 1.400000 0.0
1.714286 1.400000 0.0
1.757143 1.400000 0.0
1.800000 1.400000 0.0
1.842857 1.400000 0.0
1.885714 1.400000 0.0
1.928571 1.400000 0.0
1.971429 1.400000 0.0
2.014286 1.400000 0.0
2.057143 1.400000 0.0
2.100000 1.400000 0.0
2.142857 1.400000 0.0
2.185714 1.400000 0.0
2.228571 1.400000 0.0
2.271429 1.400000 0.0
2.314286 1.400000 0.0
2.357143 1.400000 0.0
2.400000 1.400000 0.0
2.442857 1.400000 0.0
2.485714 1.400000 0.0
2.528571 1.400000 0.0
2.571429 1.400000 0.0
2.614286 1.400000 0.0
2.657143 1.400000 0.0
2.700000 1.400000 0.0
2.742857 1.400000 0.0
2.785714 1.400000 0.0
2.828571 1.400000 0.0
2.871429 1.400000 0.0
2.914286 1.400000 0.0
2.957143 1.400000 0.0
3.000000 1.400000 0.0
1.500000 1.443750 0.0
1.542857 1.443750 0.0
1.585714 1.443750 0.0
1.628571 1.443750 0.0
1.671429 1.443750 0.0
1.714286 1.443750 0.0
1.757143 1.443750 0.0
1.800000 1.443750 0.0
1.842857 1.443750 0.0
1.885714 1.443750 0.0
1.928571 1.443750 0.0
1.971429 1.443750 0.0
2.014286 1.443750 0.0
2.057143 1.443750 0.0
2.100000 1.443750 0.0
2.142857 1.443750 0.0
2.185714 1.443750 0.0
2.228571 1.443750 0.0
2.271429 1.443750 0.0
2.314286 1.443750 0.0
2.357143 1.443750 0.0
2.400000 1.443750 0.0
2.442857 1.443750 0.0
2.485714 1.443750 0.0
2.528571 1.443750 0.0
2.571429 1.443750 0.0
2.614286 1.443750 0.0
2.657143 1.443750 0.0
2.700000 1.443750 0.0
2.742857 1.443750 0.0
2.785714 1.443750 0.0
2.828571 1.443750 0.0
2.871429 1.443750 0.0
2.914286 1.443750 0.0
2.957143 1.443750 0.0
3.000000 1.443750 0.0
1.500000 1.487500 0.0
1.542857 1.487500 0.0
1.585714 1.487500 0.0
1.628571 1.487500 0.0
1.671429 1.487500 0.0
1.714286 1.487500 0.0
1.757143 1.487500 0.0
1.800000 1.487500 0.0
1.842857 1.487500 0.0
1.885714 1.487500 0.0
1.928571 1.487500 0.0
1.971429 1.487500 0.0
2.014286 1.487500 0.0
2.057143 1.487500 0.0
2.100000 1.487500 0.0
2.142857 1.487500 0.0
2.185714 1.487500 0.0
2.228571 1.487500 0.0
2.271429 1.487500 0.0
2.314286 1.487500 0.0
2.357143 1.487500 0.0
2.400000 1.487500 0.0
2.442857 1.487500 0.0
2.485714 1.487500 0.0
2.528571 1.487500 0.0
2.571429 1.487500 0.0
2.614286 1.487500 0.0
2.657143 1.487500 0.0
2.700000 1.487500 0.0
2.742857 1.487500 0.0
2.785714 1.487500 0.0
2.828571 1.487500 0.0
2.871429 1.487500 0.0
2.914286 1.487500 0.0
2.957143 1.487500 0.0
3.000000 1.487500 0.0
1.500000 1.531250 0.0
1.542857 1.531250 0.0
1.585714 1.531250 0.0
1.628571 1.531250 0.0
1.671429 1.531250 0.0
1.714286 1.531250 0.0
1.757143 1.531250 0.0
1.800000 1.531250 0.0
1.842857 1.531250 0.0
1.885714 1.531250 0.0
1.928571 1.531250 0.0
1.971429 1.531250 0.0
2.014286 1.531250 0.0
2.057143 1.531250 0.0
2.100000 1.531250 0.0
2.142857 1.531250 0.0
2.185714 1.531250 0.0
2.228571 1.531250 0.0
2.271429 1.531250 0.0
2.314286 1.531250 0.0
2.357143 1.531250 0.0
2.400000 1.531250 0.0
2.442857 1.531250 0.0
2.485714 1.531250 0.0
2.528571 1.531250 0.0
2.571429 1.531250 0.0
2.614286 1.531250 0.0
2.657143 1.531250 0.0
2.700000 1.531250 0.0
2.742857 1.531250 0.0
2.785714 1.531250 0.0
2.828571 1.531250 0.0
2.871429 1.531250 0.0
2.914286 1.531250 0.0
2.957143 1.531250 0.0
3.000000 1.531250 0.0
1.500000 1.575000 0.0
1.542857 1.575000 0.0
1.585714 1.575000 0.0
1.628571 1.575000 0.0
1.671429 1.575000 0.0
1.714286 1.575000 0.0
1.757143 1.575000 0.0
1.800000 1.575000 0.0
1.842857 1.575000 0.0
1.885714 1.575000 0.0
1.928571 1.575000 0.0
1.971429 1.575000 0.0
2.014286 1.575000 0.0
2.057143 1.575000 0.0
2.100000 1.575000 0.0
2.142857 1.575000 0.0
2.185714 1.575000 0.0
2.228571 1.575000 0.0
2.271429 1.575000 0.0
2.314286 1.575000 0.0
2.357143 1.575000 0.0
2.400000 1.575000 0.0
2.442857 1.575000 0.0
2.485714 1.575000 0.0
2.528571 1.575000 0.0
2.571429 1.575000 0.0
2.614286 1.575000 0.0
2.657143 1.575000 0.0
2.700000 1.575000 0.0
2.742857 1.575000 0.0
2.785714 1.575000 0.0
2.828571 1.575000 0.0
2.871429 1.575000 0.0
2.914286 1.575000 0.0
2.957143 1.575000 0.0
3.000000 1.575000 0.0
1.500000 1.618750 0.0
1.542857 1.618750 0.0
1.585714 1.618750 0.0
1.628571 1.618750 0.0
1.671429 1.618750 0.0
1.714286 1.618750 0.0
1.757143 1.618750 0.0
1.800000 1.618750 0.0
1.842857 1.618750 0.0
1.885714 1.618750 0.0
1.928571 1.618750 0.0
1.971429 1.618750 0.0
2.014286 1.618750 0.0
2.057143 1.618750 0.0
2.100000 1.618750 0.0
2.142857 1.618750 0.0
2.185714 1.618750 0.0
2.228571 1.618750 0.0
2.271429 1.618750 0.0
2.314286 1.618750 0.0
2.357143 1.618750 0.0
2.400000 1.618750 0.0
2.442857 1.618750 0.0
2.485714 1.618750 0.0
2.528571 1.618750 0.0
2.571429 1.618750 0.0
2.614286 1.618750 0.0
2.657143 1.618750 0.0
2.700000 1.618750 0.0
2.742857 1.618750 0.0
2.785714 1.618750 0.0
2.828571 1.618750 0.0
2.871429 1.618750 0.0
2.914286 1.618750 0.0
2.957143 1.618750 0.0
3.000000 1.618750 0.0
1.500000 1.662500 0.0
1.542857 1.662500 0.0
1.585714 1.662500 0.0
1.628571 1.662500 0.0
1.671429 1.662500 0.0
1.714286 1.662500 0.0
1.757143 1.662500 0.0
1.800000 1.662500 0.0
1.842857 1.662500 0.0
1.885714 1.662500 0.0
1.928571 1.662500 0.0
1.971429 1.662500 0.0
2.014286 1.662500 0.0
2.057143 1.662500 0.0
2.100000 1.662500 0.0
2.142857 1.662500 0.0
2.185714 1.662500 0.0
2.228571 1.662500 0.0
2.271429 1.662500 0.0
2.314286 1.662500 0.0
2.357143 1.662500 0.0
2.400000 1.662500 0.0
2.442857 1.662500 0.0
2.485714 1.662500 0.0
2.528571 1.662500 0.0
2.571429 1.662500 0.0
2.614286 1.662500 0.0
2.657143 1.662500 0.0
2.700000 1.662500 0.0
2.742857 1.662500 0.0
2.785714 1.662500 0.0
2.828571 1.662500 0.0
2.871429 1.662500 0.0
2.914286 1.662500 0.0
2.957143 1.662500 0.0
3.000000 1.662500 0.0
1.500000 1.706250 0.0
1.542857 1.706250 0.0
1.585714 1.706250 0.0
1.628571 1.706250 0.0
1.671429 1.706250 0.0
1.714286 1.706250 0.0
1.757143 1.706250 0.0
1.800000 1.706250 0.0
1.842857 1.706250 0.0
1.885714 1.706250 0.0
1.928571 1.706250 0.0
1.971429 1.706250 0.0
2.014286 1.706250 0.0
2.057143 1.706250 0.0
2.100000 1.706250 0.0
2.142857 1.706250 0.0
2.185714 1.706250 0.0
2.228571 1.706250 0.0
2.271429 1.706250 0.0
2.314286 1.706250 0.0
2.357143 1.706250 0.0
2.400000 1.706250 0.0
2.442857 1.706250 0.0
2.485714 1.706250 0.0
2.528571 1.706250 0.0
2.571429 1.706250 0.0
2.614286 1.706250 0.0
2.657143 1.706250 0.0
2.700000 1.706250 0.0
2.742857 1.706250 0.0
2.785714 1.706250 0.0
2.828571 1.706250 0.0
2.871429 1.706250 0.0
2.914286 1.706250 0.0
2.957143 1.706250 0.0
3.000000 1.706250 0.0
1.500000 1.750000 0.0
1.542857 1.750000 0.0
1.585714 1.750000 0.0
1.628571 1.750000 0.0
1.671429 1.750000 0.0
1.714286 1.750000 0.0
1.757143 1.750000 0.0
1.800000 1.750000 0.0
1.842857 1.750000 0.0
1.885714 1.750000 0.0
1.928571 1.750000 0.0
1.971429 1.750000 0.0
2.014286 1.750000 0.0
2.057143 1.750000 0.0
2.100000 1.750000 0.0
2.142857 1.750000 0.0
2.185714 1.750000 0.0
2.228571 1.750000 0.0
2.271429 1.750000 0.0
2.314286 1.750000 0.0
2.357143 1.750000 0.0
2.400000 1.750000 0.0
2.442857 1.750000 0.0
2.485714 1.750000 0.0
2.528571 1.750000 0.0
2.571429 1.750000 0.0
2.614286 1.750000 0.0
2.657143 1.750000 0.0
2.700000 1.750000 0.0
2.742857 1.750000 0.0
2.785714 1.750000 0.0
2.828571 1.750000 0.0
2.871429 1.750000 0.0
2.914286 1.750000 0.0
2.957143 1.750000 0.0
3.000000 1.750000 0.0
</DataArray></Points>
<PointData>
<DataArray NumberOfComponents="1" format="ascii" type ="Float32" Name="phi">
0.127926
0.129437
0.133994
0.141500
0.151582
0.164116
0.179143
0.196405
0.215690
0.237041
0.260477
0.285663
0.312204
0.339997
0.369120
0.399485
0.430774
0.462761
0.495405
0.528812
0.563075
0.598082
0.633607
0.669505
0.705763
0.742464
0.779665
0.817285
0.855171
0.893239
0.931519
0.970106
1.009012
1.048128
1.087360
1.102706
0.084206
0.085835
0.090739
0.098765
0.109479
0.122825
0.138810
0.157119
0.177568
0.200080
0.224690
0.251183
0.279063
0.308021
0.338036
0.369211
0.401487
0.434616
0.468399
0.502772
0.537774
0.573459
0.609783
0.646578
0.683687
0.721072
0.758784
0.796896
0.835372
0.874081
0.912943
0.951972
0.991229
1.030737
1.070429
1.090310
0.040489
0.042255
0.047557
0.056163
0.067583
0.081885
0.098957
0.118376
0.140137
0.164085
0.189978
0.217642
0.246782
0.277032
0.308211
0.340335
0.373471
0.407586
0.442499
0.477993
0.513953
0.550371
0.587319
0.624818
0.662718
0.700866
0.739216
0.777815
0.816748
0.855992
0.895425
0.934982
0.974668
1.014527
1.054584
1.074659
-0.003141
-0.001219
0.004534
0.013898
0.026074
0.041350
0.059665
0.080346
0.103596
0.129139
0.156480
0.185311
0.215557
0.247046
0.279554
0.312933
0.347113
0.382111
0.417929
0.454435
0.491414
0.528729
0.566369
0.604420
0.642935
0.681786
0.720825
0.760010
0.799395
0.839065
0.878992
0.919068
0.959242
0.999515
1.039922
1.060164
-0.046763
-0.044630
-0.038315
-0.028161
-0.015044
0.001537
0.021288
0.043359
0.068195
0.095338
0.124179
0.154348
0.185751
0.218383
0.252170
0.286915
0.322372
0.358407
0.395034
0.432305
0.470153
0.508375
0.546829
0.585510
0.624519
0.663923
0.703599
0.743409
0.783325
0.823408
0.863733
0.904266
0.944913
0.985632
1.026430
1.046851
-0.090444
-0.088037
-0.081046
-0.070084
-0.055665
-0.037474
-0.016148
0.007554
0.034079
0.062860
0.093130
0.124759
0.157603
0.191530
0.226497
0.262430
0.299118
0.336309
0.373885
0.411874
0.450379
0.489359
0.528615
0.568028
0.607608
0.647467
0.687650
0.728034
0.768511
0.809072
0.849777
0.890681
0.931736
0.972869
1.014060
1.034669
-0.134092
-0.131368
-0.123601
-0.111541
-0.095516
-0.075665
-0.052632
-0.026965
0.001570
0.031977
0.063574
0.096766
0.131230
0.166683
0.202903
0.239854
0.277535
0.315768
0.354339
0.393171
0.432318
0.471890
0.511820
0.551938
0.592175
0.632557
0.673176
0.714022
0.754994
0.796042
0.837171
0.878427
0.919821
0.961301
1.002837
1.023618
-0.177700
-0.174598
-0.165870
-0.152374
-0.134473
-0.112635
-0.087513
-0.059560
-0.029053
0.002888
0.036088
0.070965
0.106975
0.143858
0.181358
0.219358
0.257903
0.296981
0.336432
0.376126
0.416029
0.456210
0.496700
0.537405
0.578242
0.619196
0.660295
0.701551
0.742924
0.784378
0.825905
0.867520
0.909228
0.951003
0.992828
1.013752
-0.221252
-0.217673
-0.207690
-0.192338
-0.172182
-0.147940
-0.120336
-0.090015
-0.057720
-0.024022
0.011151
0.047681
0.085080
0.123177
0.161824
0.200890
0.240355
0.280228
0.320445
0.360905
0.401564
0.442419
0.483466
0.524670
0.565998
0.607443
0.649000
0.690651
0.732376
0.774164
0.816015
0.857940
0.899932
0.941970
0.984046
1.005093
-0.264717
-0.260489
-0.248796
-0.231032
-0.208111
-0.181056
-0.150825
-0.118250
-0.083961
-0.048203
-0.011039
0.026991
0.065590
0.104834
0.144545
0.184630
0.225043
0.265747
0.306688
0.347815
0.389109
0.430555
0.472121
0.513779
0.555523
0.597358
0.639279
0.681266
0.723303
0.765384
0.807510
0.849688
0.891915
0.934179
0.976470
0.997623
-0.308018
-0.302840
-0.288730
-0.267821
-0.241579
-0.211395
-0.178378
-0.143307
-0.106672
-0.068819
-0.030039
0.009074
0.048738
0.089192
0.129960
0.170987
0.212236
0.253668
0.295241
0.336930
0.378730
0.420629
0.462607
0.504648
0.546745
0.588902
0.631118
0.673381
0.715678
0.758005
0.800362
0.842754
0.885180
0.927631
0.970103
0.991343
-0.350941
-0.344280
-0.326687
-0.301744
-0.271634
-0.238032
-0.202054
-0.164412
-0.125608
-0.086069
-0.046104
-0.005845
0.035172
0.076756
0.118366
0.160120
0.201990
0.243963
0.286019
0.328147
0.370343
0.412600
0.454907
0.497253
0.539635
0.582055
0.624513
0.666999
0.709508
0.752035
0.794582
0.837150
0.879740
0.922346
0.964965
0.986277
-0.392852
-0.383827
-0.361243
-0.331334
-0.296966
-0.259902
-0.221172
-0.181396
-0.140968
-0.100123
-0.058963
-0.017227
0.025101
0.067408
0.109579
0.151836
0.194157
0.236535
0.278959
0.321424
0.363927
0.406465
0.449030
0.491615
0.534220
0.576847
0.619494
0.662157
0.704832
0.747517
0.790212
0.832918
0.875636
0.918364
0.961099
0.982468
-0.431914
-0.419292
-0.389958
-0.354500
-0.315974
-0.275855
-0.234864
-0.193365
-0.151541
-0.109476
-0.067214
-0.024523
0.018342
0.060976
0.103561
0.146182
0.188830
0.231499
0.274188
0.316893
0.359614
0.402350
0.445095
0.487849
0.530611
0.573381
0.616159
0.658944
0.701733
0.744526
0.787323
0.830123
0.872928
0.915738
0.958536
0.979929
-0.460331
-0.443653
-0.407431
-0.367309
-0.325753
-0.283620
-0.241214
-0.198653
-0.155991
-0.113259
-0.070479
-0.027665
0.015067
0.057787
0.100593
0.143403
0.186220
0.229041
0.271865
0.314693
0.357525
0.400359
0.443195
0.486032
0.528871
0.571711
0.614553
0.657397
0.700241
0.743087
0.785932
0.828779
0.871626
0.914467
0.956405
0.976925
-0.455433
-0.439476
-0.404474
-0.365126
-0.323976
-0.282034
-0.239719
-0.197223
-0.154635
-0.111993
-0.069295
-0.026841
0.015426
0.058002
0.100793
0.143590
0.186394
0.229205
0.272022
0.314842
0.357666
0.400493
0.443323
0.486156
0.528991
0.571828
0.614666
0.657505
0.700346
0.743188
0.786032
0.828876
0.871722
0.913535
0.947267
0.960611
-0.421252
-0.409837
-0.382733
-0.348991
-0.311576
-0.272117
-0.231486
-0.190159
-0.148407
-0.106395
-0.064214
-0.022171
0.019648
0.061794
0.104301
0.146850
0.189440
0.232063
0.274716
0.317391
0.360083
0.402791
0.445514
0.488251
0.530999
0.573754
0.616516
0.659285
0.702062
0.744846
0.787635
0.830443
0.871948
0.904758
0.921072
0.924668
-0.381057
-0.372773
-0.351853
-0.323687
-0.290769
-0.254796
-0.216841
-0.177571
-0.137409
-0.096646
-0.055477
-0.013855
0.027796
0.069435
0.111382
0.153439
0.195590
0.237824
0.280134
0.322505
0.364921
0.407377
0.449872
0.492404
0.534967
0.577553
0.620159
0.662784
0.705429
0.748093
0.790809
0.831747
0.863052
0.877884
0.881042
0.881117
-0.338813
-0.332525
-0.315967
-0.292422
-0.263711
-0.231321
-0.196353
-0.159564
-0.121452
-0.082363
-0.042548
-0.001867
0.039242
0.080314
0.121577
0.163016
0.204603
0.246325
0.288176
0.330130
0.372163
0.414262
0.456427
0.498660
0.540953
0.583289
0.625661
0.668066
0.710506
0.753053
0.793043
0.822114
0.834899
0.837328
0.837370
0.837367
-0.295814
-0.290806
-0.277285
-0.257380
-0.232327
-0.203289
-0.171254
-0.137002
-0.101077
-0.063823
-0.025382
0.013863
0.053598
0.093775
0.134259
0.175002
0.215959
0.257108
0.298438
0.339916
0.381506
0.423192
0.464973
0.506856
0.548827
0.590861
0.632946
0.675092
0.717389
0.755867
0.781816
0.792044
0.793611
0.793625
0.793620
0.793618
-0.252500
-0.248354
-0.236977
-0.219879
-0.197895
-0.171874
-0.142618
-0.110829
-0.077100
-0.041824
-0.004935
0.032915
0.071202
0.110153
0.149597
0.189430
0.229589
0.270046
0.310761
0.351679
0.392753
0.433959
0.475303
0.516790
0.558397
0.600086
0.641841
0.683449
0.719529
0.741690
0.749185
0.749883
0.749881
0.749876
0.749870
0.760805
</DataArray>
<DataArray NumberOfComponents="1" format="ascii" type ="Float32" Name="u">
0.000006
-0.000477
-0.000985
-0.001522
-0.002027
-0.002360
-0.002586
-0.002713
-0.002765
-0.002764
-0.002724
-0.002654
-0.002562
-0.002456
-0.002342
-0.002225
-0.002109
-0.001996
-0.001889
-0.001788
-0.001694
-0.001608
-0.001529
-0.001458
-0.001394
-0.001337
-0.001286
-0.001242
-0.001203
-0.001170
-0.001142
-0.001118
-0.001100
-0.001086
-0.001076
-0.001076
0.000007
-0.000502
-0.001079
-0.001778
-0.002518
-0.002842
-0.003071
-0.003160
-0.003160
-0.003112
-0.003027
-0.002913
-0.002780
-0.002637
-0.002488
-0.002341
-0.002199
-0.002063
-0.001937
-0.001821
-0.001714
-0.001617
-0.001530
-0.001452
-0.001382
-0.001320
-0.001266
-0.001219
-0.001178
-0.001143
-0.001114
-0.001090
-0.001072
-0.001061
-0.001056
-0.001056
0.000005
-0.000469
-0.001061
-0.001940
-0.003130
-0.003319
-0.003641
-0.003681
-0.003600
-0.003496
-0.003358
-0.003192
-0.003010
-0.002821
-0.002633
-0.002452
-0.002281
-0.002121
-0.001975
-0.001843
-0.001723
-0.001616
-0.001521
-0.001436
-0.001361
-0.001296
-0.001238
-0.001189
-0.001146
-0.001110
-0.001080
-0.001056
-0.001038
-0.001026
-0.001018
-0.001018
-0.000002
-0.000419
-0.000932
-0.001709
-0.002867
-0.003246
-0.004158
-0.004209
-0.004036
-0.003905
-0.003715
-0.003487
-0.003245
-0.003003
-0.002770
-0.002552
-0.002350
-0.002166
-0.002000
-0.001852
-0.001720
-0.001603
-0.001500
-0.001410
-0.001331
-0.001262
-0.001203
-0.001151
-0.001108
-0.001071
-0.001040
-0.001016
-0.000997
-0.000984
-0.000976
-0.000976
-0.000010
-0.000369
-0.000706
-0.000959
-0.001129
-0.002221
-0.003719
-0.004394
-0.004325
-0.004328
-0.004099
-0.003791
-0.003477
-0.003175
-0.002893
-0.002634
-0.002400
-0.002191
-0.002006
-0.001843
-0.001701
-0.001576
-0.001467
-0.001372
-0.001290
-0.001220
-0.001159
-0.001106
-0.001062
-0.001025
-0.000995
-0.000970
-0.000951
-0.000938
-0.000929
-0.000929
-0.000010
-0.000257
-0.000409
-0.000316
0.000036
-0.000936
-0.001760
-0.003369
-0.004199
-0.004700
-0.004474
-0.004084
-0.003692
-0.003326
-0.002991
-0.002690
-0.002424
-0.002192
-0.001990
-0.001814
-0.001663
-0.001532
-0.001419
-0.001322
-0.001238
-0.001167
-0.001105
-0.001053
-0.001009
-0.000972
-0.000942
-0.000918
-0.000899
-0.000886
-0.000877
-0.000877
-0.000006
-0.000132
-0.000187
-0.000104
0.000057
-0.000170
-0.000124
-0.001287
-0.003208
-0.004611
-0.004638
-0.004311
-0.003875
-0.003444
-0.003053
-0.002710
-0.002415
-0.002162
-0.001946
-0.001761
-0.001604
-0.001470
-0.001355
-0.001257
-0.001174
-0.001103
-0.001043
-0.000992
-0.000949
-0.000913
-0.000884
-0.000860
-0.000842
-0.000829
-0.000821
-0.000821
-0.000003
-0.000060
-0.000076
-0.000025
0.000066
0.000085
0.000210
-0.000036
-0.001483
-0.003261
-0.004356
-0.004472
-0.004028
-0.003517
-0.003064
-0.002683
-0.002363
-0.002094
-0.001869
-0.001680
-0.001521
-0.001387
-0.001274
-0.001178
-0.001097
-0.001028
-0.000970
-0.000921
-0.000881
-0.000847
-0.000819
-0.000797
-0.000780
-0.000768
-0.000760
-0.000760
-0.000002
-0.000024
-0.000025
0.000007
0.000062
0.000111
0.000186
0.000134
-0.000212
-0.001103
-0.003219
-0.004564
-0.004117
-0.003510
-0.003002
-0.002592
-0.002257
-0.001983
-0.001756
-0.001568
-0.001413
-0.001283
-0.001174
-0.001083
-0.001007
-0.000942
-0.000888
-0.000843
-0.000805
-0.000774
-0.000749
-0.000728
-0.000713
-0.000701
-0.000694
-0.000694
-0.000001
-0.000008
-0.000005
0.000015
0.000049
0.000086
0.000132
0.000147
0.000119
-0.000014
-0.001595
-0.004079
-0.003880
-0.003333
-0.002835
-0.002425
-0.002092
-0.001822
-0.001603
-0.001424
-0.001278
-0.001157
-0.001057
-0.000973
-0.000904
-0.000846
-0.000797
-0.000757
-0.000723
-0.000695
-0.000673
-0.000655
-0.000641
-0.000631
-0.000624
-0.000624
-0.000000
-0.000004
-0.000001
0.000010
0.000028
0.000050
0.000073
0.000083
0.000062
-0.000075
-0.000798
-0.002694
-0.003238
-0.002988
-0.002565
-0.002178
-0.001862
-0.001610
-0.001408
-0.001247
-0.001116
-0.001009
-0.000922
-0.000849
-0.000789
-0.000740
-0.000698
-0.000664
-0.000635
-0.000611
-0.000592
-0.000577
-0.000565
-0.000556
-0.000551
-0.000551
0.000000
-0.000004
-0.000006
-0.000003
0.000004
0.000013
0.000020
0.000021
0.000002
-0.000079
-0.000362
-0.000873
-0.002731
-0.002652
-0.002231
-0.001856
-0.001567
-0.001345
-0.001173
-0.001037
-0.000929
-0.000842
-0.000771
-0.000712
-0.000664
-0.000625
-0.000592
-0.000564
-0.000541
-0.000523
-0.000507
-0.000495
-0.000486
-0.000479
-0.000474
-0.000474
0.000000
-0.000007
-0.000014
-0.000019
-0.000022
-0.000024
-0.000026
-0.000025
-0.000008
0.000054
0.000211
0.000384
-0.002291
-0.002202
-0.001774
-0.001439
-0.001201
-0.001029
-0.000899
-0.000799
-0.000720
-0.000657
-0.000606
-0.000565
-0.000531
-0.000502
-0.000479
-0.000460
-0.000444
-0.000430
-0.000419
-0.000411
-0.000404
-0.000398
-0.000395
-0.000395
0.000001
-0.000012
-0.000024
-0.000036
-0.000049
-0.000062
-0.000076
-0.000087
-0.000078
-0.000012
0.000168
0.000321
-0.001373
-0.001354
-0.001104
-0.000905
-0.000767
-0.000668
-0.000595
-0.000539
-0.000495
-0.000460
-0.000432
-0.000409
-0.000391
-0.000375
-0.000362
-0.000352
-0.000343
-0.000336
-0.000329
-0.000324
-0.000320
-0.000316
-0.000314
-0.000314
0.000001
-0.000017
-0.000035
-0.000053
-0.000074
-0.000099
-0.000131
-0.000170
-0.000218
-0.000269
-0.000308
-0.000310
-0.000297
-0.000289
-0.000296
-0.000294
-0.000287
-0.000279
-0.000271
-0.000265
-0.000259
-0.000255
-0.000252
-0.000249
-0.000247
-0.000245
-0.000244
-0.000242
-0.000241
-0.000240
-0.000238
-0.000237
-0.000235
-0.000234
-0.000232
-0.000232
0.000001
-0.000021
-0.000044
-0.000068
-0.000095
-0.000129
-0.000176
-0.000244
-0.000352
-0.000533
-0.000814
-0.000960
0.000779
0.000770
0.000514
0.000322
0.000197
0.000114
0.000056
0.000012
-0.000022
-0.000049
-0.000070
-0.000088
-0.000103
-0.000115
-0.000124
-0.000132
-0.000139
-0.000143
-0.000147
-0.000149
-0.000150
-0.000151
-0.000150
-0.000150
0.000001
-0.000025
-0.000051
-0.000078
-0.000109
-0.000147
-0.000197
-0.000273
-0.000394
-0.000600
-0.000922
-0.001072
0.001678
0.001600
0.001187
0.000866
0.000643
0.000485
0.000368