<VTKFile type="StructuredGrid" version="0.1" byte_order="LittleEndian">
<StructuredGrid WholeExtent="1 71 1 81 0 0">
<Piece Extent="36 71 61 81 0 0">
<PointData></PointData>
<CellData></CellData>
<Points>
<DataArray NumberOfComponents="3" format="ascii" type ="Float32" Name="mesh">
1.500000 2.625000 0.0
1.542857 2.625000 0.0
1.585714 2.625000 0.0
1.628571 2.625000 0.0
1.671429 2.625000 0.0
1.714286 2.625000 0.0
1.757143 2.625000 0.0
1.800000 2.625000 0.0
1.842857 2.625000 0.0
1.885714 2.625000 0.0
1.928571 2.625000 0.0
1.971429 2.625000 0.0
2.014286 2.625000 0.0
2.057143 2.625000 0.0
2.100000 2.625000 0.0
2.142857 2.625000 0.0
2.185714 2.625000 0.0
2.228571 2.625000 0.0
2.271429 2.625000 0.0
2.314286 2.625000 0.0
2.357143 2.625000 0.0
2.400000 2.625000 0.0
2.442857 2.625000 0.0
2.485714 2.625000 0.0
2.528571 2.625000 0.0
2.571429 2.625000 0.0
2.614286 2.625000 0.0
2.657143 2.625000 0.0
2.700000 2.625000 0.0
2.742857 2.625000 0.0
2.785714 2.625000 0.0
2.828571 2.625000 0.0
2.871429 2.625000 0.0
2.914286 2.625000 0.0
2.957143 2.625000 0.0
3.000000 2.625000 0.0
1.500000 2.668750 0.0
1.542857 2.668750 0.0
1.585714 2.668750 0.0
1.628571 2.668750 0.0
1.671429 2.668750 0.0
1.714286 2.668750 0.0
1.757143 2.668750 0.0
1.800000 2.668750 0.0
1.842857 2.668750 0.0
1.885714 2.668750 0.0
1.928571 2.668750 0.0
1.971429 2.668750 0.0
2.014286 2.668750 0.0
2.057143 2.668750 0.0
2.100000 2.668750 0.0
2.142857 2.668750 0.0
2.185714 2.668750 0.0
2.228571 2.668750 0.0
2.271429 2.668750 0.0
2.314286 2.668750 0.0
2.357143 2.668750 0.0
2.400000 2.668750 0.0
2.442857 2.668750 0.0
2.485714 2.668750 0.0
2.528571 2.668750 0.0
2.571429 2.668750 0.0
2.614286 2.668750 0.0
2.657143 2.668750 0.0
2.700000 2.668750 0.0
2.742857 2.668750 0.0
2.785714 2.668750 0.0
2.828571 2.668750 0.0
2.871429 2.668750 0.0
2.914286 2.668750 0.0
2.957143 2.668750 0.0
3.000000 2.668750 0.0
1.500000 2.712500 0.0
1.542857 2.712500 0.0
1.585714 2.712500 0.0
1.628571 2.712500 0.0
1.671429 2.712500 0.0
1.714286 2.712500 0.0
1.757143 2.712500 0.0
1.800000 2.712500 0.0
1.842857 2.712500 0.0
1.885714 2.712500 0.0
1.928571 2.712500 0.0
1.971429 2.712500 0.0
2.014286 2.712500 0.0
2.057143 2.712500 0.0
2.100000 2.712500 0.0
2.142857 2.712500 0.0
2.185714 2.712500 0.0
2.228571 2.712500 0.0
2.271429 2.712500 0.0
2.314286 2.712500 0.0
2.357143 2.712500 0.0
2.400000 2.712500 0.0
2.442857 2.712500 0.0
2.485714 2.712500 0.0
2.528571 2.712500 0.0
2.571429 2.712500 0.0
2.614286 2.712500 0.0
2.657143 2.712500 0.0
2.700000 2.712500 0.0
2.742857 2.712500 0.0
2.785714 2.712500 0.0
2.828571 2.712500 0.0
2.871429 2.712500 0.0
2.914286 2.712500 0.0
2.957143 2.712500 0.0
3.000000 2.712500 0.0
1.500000 2.756250 0.0
1.542857 2.756250 0.0
1.585714 2.756250 0.0
1.628571 2.756250 0.0
1.671429 2.756250 0.0
1.714286 2.756250 0.0
1.757143 2.756250 0.0
1.800000 2.756250 0.0
1.842857 2.756250 0.0
1.885714 2.756250 0.0
1.928571 2.756250 0.0
1.971429 2.756250 0.0
2.014286 2.756250 0.0
2.057143 2.756250 0.0
2.100000 2.756250 0.0
2.142857 2.756250 0.0
2.185714 2.756250 0.0
2.228571 2.756250 0.0
2.271429 2.756250 0.0
2.314286 2.756250 0.0
2.357143 2.756250 0.0
2.400000 2.756250 0.0
2.442857 2.756250 0.0
2.485714 2.756250 0.0
2.528571 2.756250 0.0
2.571429 2.756250 0.0
2.614286 2.756250 0.0
2.657143 2.756250 0.0
2.700000 2.756250 0.0
2.742857 2.756250 0.0
2.785714 2.756250 0.0
2.828571 2.756250 0.0
2.871429 2.756250 0.0
2.914286 2.756250 0.0
2.957143 2.756250 0.0
3.000000 2.756250 0.0
1.500000 2.800000 0.0
1.542857 2.800000 0.0
1.585714 2.800000 0.0
1.628571 2.800000 0.0
1.671429 2.800000 0.0
1.714286 2.800000 0.0
1.757143 2.800000 0.0
1.800000 2.800000 0.0
1.842857 2.800000 0.0
1.885714 2.800000 0.0
1.928571 2.800000 0.0
1.971429 2.800000 0.0
2.014286 2.800000 0.0
2.057143 2.800000 0.0
2.100000 2.800000 0.0
2.142857 2.800000 0.0
2.185714 2.800000 0.0
2.228571 2.800000 0.0
2.271429 2.800000 0.0
2.314286 2.800000 0.0
2.357143 2.800000 0.0
2.400000 2.800000 0.0
2.442857 2.800000 0.0
2.485714 2.800000 0.0
2.528571 2.800000 0.0
2.571429 2.800000 0.0
2.614286 2.800000 0.0
2.657143 2.800000 0.0
2.700000 2.800000 0.0
2.742857 2.800000 0.0
2.785714 2.800000 0.0
2.828571 2.800000 0.0
2.871429 2.800000 0.0
2.914286 2.800000 0.0
2.957143 2.800000 0.0
3.000000 2.800000 0.0
1.500000 2.843750 0.0
1.542857 2.843750 0.0
1.585714 2.843750 0.0
1.628571 2.843750 0.0
1.671429 2.843750 0.0
1.714286 2.843750 0.0
1.757143 2.843750 0.0
1.800000 2.843750 0.0
1.842857 2.843750 0.0
1.885714 2.843750 0.0
1.928571 2.843750 0.0
1.971429 2.843750 0.0
2.014286 2.843750 0.0
2.057143 2.843750 0.0
2.100000 2.843750 0.0
2.142857 2.843750 0.0
2.185714 2.843750 0.0
2.228571 2.843750 0.0
2.271429 2.843750 0.0
2.314286 2.843750 0.0
2.357143 2.843750 0.0
2.400000 2.843750 0.0
2.442857 2.843750 0.0
2.485714 2.843750 0.0
2.528571 2.843750 0.0
2.571429 2.843750 0.0
2.614286 2.843750 0.0
2.657143 2.843750 0.0
2.700000 2.843750 0.0
2.742857 2.843750 0.0
2.785714 2.843750 0.0
2.828571 2.843750 0.0
2.871429 2.843750 0.0
2.914286 2.843750 0.0
2.957143 2.843750 0.0
3.000000 2.843750 0.0
1.500000 2.887500 0.0
1.542857 2.887500 0.0
1.585714 2.887500 0.0
1.628571 2.887500 0.0
1.671429 2.887500 0.0
1.714286 2.887500 0.0
1.757143 2.887500 0.0
1.800000 2.887500 0.0
1.842857 2.887500 0.0
1.885714 2.887500 0.0
1.928571 2.887500 0.0
1.971429 2.887500 0.0
2.014286 2.887500 0.0
2.057143 2.887500 0.0
2.100000 2.887500 0.0
2.142857 2.887500 0.0
2.185714 2.887500 0.0
2.228571 2.887500 0.0
2.271429 2.887500 0.0
2.314286 2.887500 0.0
2.357143 2.887500 0.0
2.400000 2.887500 0.0
2.442857 2.887500 0.0
2.485714 2.887500 0.0
2.528571 2.887500 0.0
2.571429 2.887500 0.0
2.614286 2.887500 0.0
2.657143 2.887500 0.0
2.700000 2.887500 0.0
2.742857 2.887500 0.0
2.785714 2.887500 0.0
2.828571 2.887500 0.0
2.871429 2.887500 0.0
2.914286 2.887500 0.0
2.957143 2.887500 0.0
3.000000 2.887500 0.0
1.500000 2.931250 0.0
1.542857 2.931250 0.0
1.585714 2.931250 0.0
1.628571 2.931250 0.0
1.671429 2.931250 0.0
1.714286 2.931250 0.0
1.757143 2.931250 0.0
1.800000 2.931250 0.0
1.842857 2.931250 0.0
1.885714 2.931250 0.0
1.928571 2.931250 0.0
1.971429 2.931250 0.0
2.014286 2.931250 0.0
2.057143 2.931250 0.0
2.100000 2.931250 0.0
2.142857 2.931250 0.0
2.185714 2.931250 0.0
2.228571 2.931250 0.0
2.271429 2.931250 0.0
2.314286 2.931250 0.0
2.357143 2.931250 0.0
2.400000 2.931250 0.0
2.442857 2.931250 0.0
2.485714 2.931250 0.0
2.528571 2.931250 0.0
2.571429 2.931250 0.0
2.614286 2.931250 0.0
2.657143 2.931250 0.0
2.700000 2.931250 0.0
2.742857 2.931250 0.0
2.785714 2.931250 0.0
2.828571 2.931250 0.0
2.871429 2.931250 0.0
2.914286 2.931250 0.0
2.957143 2.931250 0.0
3.000000 2.931250 0.0
1.500000 2.975000 0.0
1.542857 2.975000 0.0
1.585714 2.975000 0.0
1.628571 2.975000 0.0
1.671429 2.975000 0.0
1.714286 2.975000 0.0
1.757143 2.975000 0.0
1.800000 2.975000 0.0
1.842857 2.975000 0.0
1.885714 2.975000 0.0
1.928571 2.975000 0.0
1.971429 2.975000 0.0
2.014286 2.975000 0.0
2.057143 2.975000 0.0
2.100000 2.975000 0.0
2.142857 2.975000 0.0
2.185714 2.975000 0.0
2.228571 2.975000 0.0
2.271429 2.975000 0.0
2.314286 2.975000 0.0
2.357143 2.975000 0.0
2.400000 2.975000 0.0
2.442857 2.975000 0.0
2.485714 2.975000 0.0
2.528571 2.975000 0.0
2.571429 2.975000 0.0
2.614286 2.975000 0.0
2.657143 2.975000 0.0
2.700000 2.975000 0.0
2.742857 2.975000 0.0
2.785714 2.975000 0.0
2.828571 2.975000 0.0
2.871429 2.975000 0.0
2.914286 2.975000 0.0
2.957143 2.975000 0.0
3.000000 2.975000 0.0
1.500000 3.018750 0.0
1.542857 3.018750 0.0
1.585714 3.018750 0.0
1.628571 3.018750 0.0
1.671429 3.018750 0.0
1.714286 3.018750 0.0
1.757143 3.018750 0.0
1.800000 3.018750 0.0
1.842857 3.018750 0.0
1.885714 3.018750 0.0
1.928571 3.018750 0.0
1.971429 3.018750 0.0
2.014286 3.018750 0.0
2.057143 3.018750 0.0
2.100000 3.018750 0.0
2.142857 3.018750 0.0
2.185714 3.018750 0.0
2.228571 3.018750 0.0
2.271429 3.018750 0.0
2.314286 3.018750 0.0
2.357143 3.018750 0.0
2.400000 3.018750 0.0
2.442857 3.018750 0.0
2.485714 3.018750 0.0
2.528571 3.018750 0.0
2.571429 3.018750 0.0
2.614286 3.018750 0.0
2.657143 3.018750 0.0
2.700000 3.018750 0.0
2.742857 3.018750 0.0
2.785714 3.018750 0.0
2.828571 3.018750 0.0
2.871429 3.018750 0.0
2.914286 3.018750 0.0
2.957143 3.018750 0.0
3.000000 3.018750 0.0
1.500000 3.062500 0.0
1.542857 3.062500 0.0
1.585714 3.062500 0.0
1.628571 3.062500 0.0
1.671429 3.062500 0.0
1.714286 3.062500 0.0
1.757143 3.062500 0.0
1.800000 3.062500 0.0
1.842857 3.062500 0.0
1.885714 3.062500 0.0
1.928571 3.062500 0.0
1.971429 3.062500 0.0
2.014286 3.062500 0.0
2.057143 3.062500 0.0
2.100000 3.062500 0.0
2.142857 3.062500 0.0
2.185714 3.062500 0.0
2.228571 3.062500 0.0
2.271429 3.062500 0.0
2.314286 3.062500 0.0
2.357143 3.062500 0.0
2.400000 3.062500 0.0
2.442857 3.062500 0.0
2.485714 3.062500 0.0
2.528571 3.062500 0.0
2.571429 3.062500 0.0
2.614286 3.062500 0.0
2.657143 3.062500 0.0
2.700000 3.062500 0.0
2.742857 3.062500 0.0
2.785714 3.062500 0.0
2.828571 3.062500 0.0
2.871429 3.062500 0.0
2.914286 3.062500 0.0
2.957143 3.062500 0.0
3.000000 3.062500 0.0
1.500000 3.106250 0.0
1.542857 3.106250 0.0
1.585714 3.106250 0.0
1.628571 3.106250 0.0
1.671429 3.106250 0.0
1.714286 3.106250 0.0
1.757143 3.106250 0.0
1.800000 3.106250 0.0
1.842857 3.106250 0.0
1.885714 3.106250 0.0
1.928571 3.106250 0.0
1.971429 3.106250 0.0
2.014286 3.106250 0.0
2.057143 3.106250 0.0
2.100000 3.106250 0.0
2.142857 3.106250 0.0
2.185714 3.106250 0.0
2.228571 3.106250 0.0
2.271429 3.106250 0.0
2.314286 3.106250 0.0
2.357143 3.106250 0.0
2.400000 3.106250 0.0
2.442857 3.106250 0.0
2.485714 3.106250 0.0
2.528571 3.106250 0.0
2.571429 3.106250 0.0
2.614286 3.106250 0.0
2.657143 3.106250 0.0
2.700000 3.106250 0.0
2.742857 3.106250 0.0
2.785714 3.106250 0.0
2.828571 3.106250 0.0
2.871429 3.106250 0.0
2.914286 3.106250 0.0
2.957143 3.106250 0.0
3.000000 3.106250 0.0
1.500000 3.150000 0.0
1.542857 3.150000 0.0
1.585714 3.150000 0.0
1.628571 3.150000 0.0
1.671429 3.150000 0.0
1.714286 3.150000 0.0
1.757143 3.150000 0.0
1.800000 3.150000 0.0
1.842857 3.150000 0.0
1.885714 3.150000 0.0
1.928571 3.150000 0.0
1.971429 3.150000 0.0
2.014286 3.150000 0.0
2.057143 3.150000 0.0
2.100000 3.150000 0.0
2.142857 3.150000 0.0
2.185714 3.150000 0.0
2.228571 3.150000 0.0
2.271429 3.150000 0.0
2.314286 3.150000 0.0
2.357143 3.150000 0.0
2.400000 3.150000 0.0
2.442857 3.150000 0.0
2.485714 3.150000 0.0
2.528571 3.150000 0.0
2.571429 3.150000 0.0
2.614286 3.150000 0.0
2.657143 3.150000 0.0
2.700000 3.150000 0.0
2.742857 3.150000 0.0
2.785714 3.150000 0.0
2.828571 3.150000 0.0
2.871429 3.150000 0.0
2.914286 3.150000 0.0
2.957143 3.150000 0.0
3.000000 3.150000 0.0
1.500000 3.193750 0.0
1.542857 3.193750 0.0
1.585714 3.193750 0.0
1.628571 3.193750 0.0
1.671429 3.193750 0.0
1.714286 3.193750 0.0
1.757143 3.193750 0.0
1.800000 3.193750 0.0
1.842857 3.193750 0.0
1.885714 3.193750 0.0
1.928571 3.193750 0.0
1.971429 3.193750 0.0
2.014286 3.193750 0.0
2.057143 3.193750 0.0
2.100000 3.193750 0.0
2.142857 3.193750 0.0
2.185714 3.193750 0.0
2.228571 3.193750 0.0
2.271429 3.193750 0.0
2.314286 3.193750 0.0
2.357143 3.193750 0.0
2.400000 3.193750 0.0
2.442857 3.193750 0.0
2.485714 3.193750 0.0
2.528571 3.193750 0.0
2.571429 3.193750 0.0
2.614286 3.193750 0.0
2.657143 3.193750 0.0
2.700000 3.193750 0.0
2.742857 3.193750 0.0
2.785714 3.193750 0.0
2.828571 3.193750 0.0
2.871429 3.193750 0.0
2.914286 3.193750 0.0
2.957143 3.193750 0.0
3.000000 3.193750 0.0
1.500000 3.237500 0.0
1.542857 3.237500 0.0
1.585714 3.237500 0.0
1.628571 3.237500 0.0
1.671429 3.237500 0.0
1.714286 3.237500 0.0
1.757143 3.237500 0.0
1.800000 3.237500 0.0
1.842857 3.237500 0.0
1.885714 3.237500 0.0
1.928571 3.237500 0.0
1.971429 3.237500 0.0
2.014286 3.237500 0.0
2.057143 3.237500 0.0
2.100000 3.237500 0.0
2.142857 3.237500 0.0
2.185714 3.237500 0.0
2.228571 3.237500 0.0
2.271429 3.237500 0.0
2.314286 3.237500 0.0
2.357143 3.237500 0.0
2.400000 3.237500 0.0
2.442857 3.237500 0.0
2.485714 3.237500 0.0
2.528571 3.237500 0.0
2.571429 3.237500 0.0
2.614286 3.237500 0.0
2.657143 3.237500 0.0
2.700000 3.237500 0.0
2.742857 3.237500 0.0
2.785714 3.237500 0.0
2.828571 3.237500 0.0
2.871429 3.237500 0.0
2.914286 3.237500 0.0
2.957143 3.237500 0.0
3.000000 3.237500 0.0
1.500000 3.281250 0.0
1.542857 3.281250 0.0
1.585714 3.281250 0.0
1.628571 3.281250 0.0
1.671429 3.281250 0.0
1.714286 3.281250 0.0
1.757143 3.281250 0.0
1.800000 3.281250 0.0
1.842857 3.281250 0.0
1.885714 3.281250 0.0
1.928571 3.281250 0.0
1.971429 3.281250 0.0
2.014286 3.281250 0.0
2.057143 3.281250 0.0
2.100000 3.281250 0.0
2.142857 3.281250 0.0
2.185714 3.281250 0.0
2.228571 3.281250 0.0
2.271429 3.281250 0.0
2.314286 3.281250 0.0
2.357143 3.281250 0.0
2.400000 3.281250 0.0
2.442857 3.281250 0.0
2.485714 3.281250 0.0
2.528571 3.281250 0.0
2.571429 3.281250 0.0
2.614286 3.281250 0.0
2.657143 3.281250 0.0
2.700000 3.281250 0.0
2.742857 3.281250 0.0
2.785714 3.281250 0.0
2.828571 3.281250 0.0
2.871429 3.281250 0.0
2.914286 3.281250 0.0
2.957143 3.281250 0.0
3.000000 3.281250 0.0
1.500000 3.325000 0.0
1.542857 3.325000 0.0
1.585714 3.325000 0.0
1.628571 3.325000 0.0
1.671429 3.325000 0.0
1.714286 3.325000 0.0
1.757143 3.325000 0.0
1.800000 3.325000 0.0
1.842857 3.325000 0.0
1.885714 3.325000 0.0
1.928571 3.325000 0.0
1.971429 3.325000 0.0
2.014286 3.325000 0.0
2.057143 3.325000 0.0
2.100000 3.325000 0.0
2.142857 3.325000 0.0
2.185714 3.325000 0.0
2.228571 3.325000 0.0
2.271429 3.325000 0.0
2.314286 3.325000 0.0
2.357143 3.325000 0.0
2.400000 3.325000 0.0
2.442857 3.325000 0.0
2.485714 3.325000 0.0
2.528571 3.325000 0.0
2.571429 3.325000 0.0
2.614286 3.325000 0.0
2.657143 3.325000 0.0
2.700000 3.325000 0.0
2.742857 3.325000 0.0
2.785714 3.325000 0.0
2.828571 3.325000 0.0
2.871429 3.325000 0.0
2.914286 3.325000 0.0
2.957143 3.325000 0.0
3.000000 3.325000 0.0
1.500000 3.368750 0.0
1.542857 3.368750 0.0
1.585714 3.368750 0.0
1.628571 3.368750 0.0
1.671429 3.368750 0.0
1.714286 3.368750 0.0
1.757143 3.368750 0.0
1.800000 3.368750 0.0
1.842857 3.368750 0.0
1.885714 3.368750 0.0
1.928571 3.368750 0.0
1.971429 3.368750 0.0
2.014286 3.368750 0.0
2.057143 3.368750 0.0
2.100000 3.368750 0.0
2.142857 3.368750 0.0
2.185714 3.368750 0.0
2.228571 3.368750 0.0
2.271429 3.368750 0.0
2.314286 3.368750 0.0
2.357143 3.368750 0.0
2.400000 3.368750 0.0
2.442857 3.368750 0.0
2.485714 3.368750 0.0
2.528571 3.368750 0.0
2.571429 3.368750 0.0
2.614286 3.368750 0.0
2.657143 3.368750 0.0
2.700000 3.368750 0.0
2.742857 3.368750 0.0
2.785714 3.368750 0.0
2.828571 3.368750 0.0
2.871429 3.368750 0.0
2.914286 3.368750 0.0
2.957143 3.368750 0.0
3.000000 3.368750 0.0
1.500000 3.412500 0.0
1.542857 3.412500 0.0
1.585714 3.412500 0.0
1.628571 3.412500 0.0
1.671429 3.412500 0.0
1.714286 3.412500 0.0
1.757143 3.412500 0.0
1.800000 3.412500 0.0
1.842857 3.412500 0.0
1.885714 3.412500 0.0
1.928571 3.412500 0.0
1.971429 3.412500 0.0
2.014286 3.412500 0.0
2.057143 3.412500 0.0
2.100000 3.412500 0.0
2.142857 3.412500 0.0
2.185714 3.412500 0.0
2.228571 3.412500 0.0
2.271429 3.412500 0.0
2.314286 3.412500 0.0
2.357143 3.412500 0.0
2.400000 3.412500 0.0
2.442857 3.412500 0.0
2.485714 3.412500 0.0
2.528571 3.412500 0.0
2.571429 3.412500 0.0
2.614286 3.412500 0.0
2.657143 3.412500 0.0
2.700000 3.412500 0.0
2.742857 3.412500 0.0
2.785714 3.412500 0.0
2.828571 3.412500 0.0
2.871429 3.412500 0.0
2.914286 3.412500 0.0
2.957143 3.412500 0.0
3.000000 3.412500 0.0
1.500000 3.456250 0.0
1.542857 3.456250 0.0
1.585714 3.456250 0.0
1.628571 3.456250 0.0
1.671429 3.456250 0.0
1.714286 3.456250 0.0
1.757143 3.456250 0.0
1.800000 3.456250 0.0
1.842857 3.456250 0.0
1.885714 3.456250 0.0
1.928571 3.456250 0.0
1.971429 3.456250 0.0
2.014286 3.456250 0.0
2.057143 3.456250 0.0
2.100000 3.456250 0.0
2.142857 3.456250 0.0
2.185714 3.456250 0.0
2.228571 3.456250 0.0
2.271429 3.456250 0.0
2.314286 3.456250 0.0
2.357143 3.456250 0.0
2.400000 3.456250 0.0
2.442857 3.456250 0.0
2.485714 3.456250 0.0
2.528571 3.456250 0.0
2.571429 3.456250 0.0
2.614286 3.456250 0.0
2.657143 3.456250 0.0
2.700000 3.456250 0.0
2.742857 3.456250 0.0
2.785714 3.456250 0.0
2.828571 3.456250 0.0
2.871429 3.456250 0.0
2.914286 3.456250 0.0
2.957143 3.456250 0.0
3.000000 3.456250 0.0
1.500000 3.500000 0.0
1.542857 3.500000 0.0
1.585714 3.500000 0.0
1.628571 3.500000 0.0
1.671429 3.500000 0.0
1.714286 3.500000 0.0
1.757143 3.500000 0.0
1.800000 3.500000 0.0
1.842857 3.500000 0.0
1.885714 3.500000 0.0
1.928571 3.500000 0.0
1.971429 3.500000 0.0
2.014286 3.500000 0.0
2.057143 3.500000 0.0
2.100000 3.500000 0.0
2.142857 3.500000 0.0
2.185714 3.500000 0.0
2.228571 3.500000 0.0
2.271429 3.500000 0.0
2.314286 3.500000 0.0
2.357143 3.500000 0.0
2.400000 3.500000 0.0
2.442857 3.500000 0.0
2.485714 3.500000 0.0
2.528571 3.500000 0.0
2.571429 3.500000 0.0
2.614286 3.500000 0.0
2.657143 3.500000 0.0
2.700000 3.500000 0.0
2.742857 3.500000 0.0
2.785714 3.500000 0.0
2.828571 3.500000 0.0
2.871429 3.500000 0.0
2.914286 3.500000 0.0
2.957143 3.500000 0.0
3.000000 3.500000 0.0
</DataArray></Points>
<PointData>
<DataArray NumberOfComponents="1" format="ascii" type ="Float32" Name="phi">
0.104312
0.103516
0.102154
0.100936
0.099940
0.091654
0.076592
0.058879
0.038675
0.018725
0.000082
-0.015524
-0.029263
-0.041254
-0.050714
-0.058403
-0.066256
-0.074917
-0.083177
-0.089884
-0.094870
-0.098511
-0.101102
-0.102857
-0.103976
-0.104674
-0.105200
-0.105973
-0.107762
-0.111079
-0.115076
-0.118522
-0.121189
-0.123252
-0.125047
-0.136878
0.090841
0.089733
0.084543
0.076485
0.065966
0.051563
0.034830
0.015720
-0.005418
-0.025195
-0.042826
-0.057915
-0.071308
-0.083427
-0.093446
-0.101430
-0.109216
-0.117737
-0.126108
-0.133149
-0.138382
-0.142137
-0.144790
-0.146579
-0.147714
-0.148418
-0.148945
-0.149710
-0.151441
-0.154674
-0.158644
-0.162141
-0.164870
-0.166957
-0.168758
-0.169661
0.047115
0.046114
0.041317
0.033430
0.022537
0.007904
-0.009598
-0.028667
-0.048102
-0.066276
-0.083246
-0.098910
-0.112945
-0.125507
-0.136075
-0.144410
-0.152170
-0.160601
-0.169036
-0.176353
-0.181865
-0.185754
-0.188476
-0.190300
-0.191451
-0.192161
-0.192689
-0.193447
-0.195125
-0.198277
-0.202214
-0.205757
-0.208548
-0.210661
-0.212469
-0.213372
0.001663
0.000758
-0.003708
-0.011388
-0.022264
-0.036278
-0.052536
-0.069737
-0.087726
-0.105989
-0.123468
-0.139727
-0.154403
-0.167468
-0.178597
-0.187350
-0.195144
-0.203506
-0.211976
-0.219513
-0.225311
-0.229362
-0.232157
-0.234018
-0.235186
-0.235902
-0.236432
-0.237184
-0.238815
-0.241887
-0.245784
-0.249368
-0.252223
-0.254365
-0.256180
-0.257083
-0.043774
-0.044603
-0.048769
-0.055954
-0.065628
-0.077892
-0.092957
-0.109711
-0.127450
-0.145650
-0.163434
-0.180274
-0.195631
-0.209282
-0.220993
-0.230216
-0.238134
-0.246434
-0.254899
-0.262627
-0.268716
-0.272958
-0.275834
-0.277734
-0.278921
-0.279643
-0.280176
-0.280922
-0.282509
-0.285502
-0.289355
-0.292975
-0.295894
-0.298068
-0.299891
-0.300795
-0.087472
-0.088238
-0.092115
-0.098839
-0.107998
-0.119533
-0.133757
-0.149922
-0.167272
-0.185317
-0.203257
-0.220550
-0.236580
-0.250902
-0.263239
-0.272991
-0.281116
-0.289374
-0.297813
-0.305696
-0.312078
-0.316539
-0.319507
-0.321449
-0.322654
-0.323384
-0.323920
-0.324661
-0.326207
-0.329124
-0.332927
-0.336577
-0.339560
-0.341770
-0.343603
-0.344507
-0.131202
-0.131913
-0.135544
-0.141879
-0.150556
-0.161431
-0.174848
-0.190342
-0.207226
-0.225058
-0.243051
-0.260632
-0.277244
-0.292278
-0.305306
-0.315660
-0.324061
-0.332304
-0.340723
-0.348728
-0.355396
-0.360103
-0.363175
-0.365162
-0.366388
-0.367125
-0.367664
-0.368400
-0.369909
-0.372751
-0.376502
-0.380173
-0.383221
-0.385471
-0.387314
-0.388219
-0.174945
-0.175608
-0.179022
-0.185002
-0.193232
-0.203535
-0.216212
-0.231004
-0.247351
-0.264875
-0.282812
-0.300556
-0.317632
-0.333364
-0.347151
-0.358200
-0.366961
-0.375227
-0.383631
-0.391732
-0.398667
-0.403640
-0.406837
-0.408874
-0.410121
-0.410867
-0.411408
-0.412140
-0.413613
-0.416383
-0.420086
-0.423774
-0.426877
-0.429171
-0.431025
-0.431932
-0.218699
-0.219320
-0.222536
-0.228194
-0.236019
-0.245820
-0.257830
-0.271921
-0.287679
-0.304803
-0.322595
-0.340400
-0.357799
-0.374156
-0.388730
-0.400578
-0.409808
-0.418143
-0.426540
-0.434712
-0.441889
-0.447146
-0.450493
-0.452585
-0.453854
-0.454608
-0.455152
-0.455880
-0.457320
-0.460019
-0.463679
-0.467380
-0.470529
-0.472869
-0.474736
-0.475645
-0.262464
-0.263047
-0.266082
-0.271450
-0.278911
-0.288263
-0.299664
-0.313082
-0.328227
-0.344874
-0.362450
-0.380236
-0.397812
-0.414663
-0.430004
-0.442755
-0.452585
-0.461050
-0.469449
-0.477675
-0.485067
-0.490618
-0.494141
-0.496294
-0.497586
-0.498349
-0.498897
-0.499620
-0.501030
-0.503660
-0.507274
-0.510985
-0.514179
-0.516564
-0.518447
-0.519358
-0.306238
-0.306786
-0.309660
-0.314766
-0.321892
-0.330829
-0.341675
-0.354467
-0.369003
-0.385118
-0.402387
-0.420090
-0.437744
-0.454935
-0.470958
-0.484671
-0.495245
-0.503936
-0.512358
-0.520627
-0.528204
-0.534052
-0.537780
-0.540001
-0.541319
-0.542090
-0.542641
-0.543361
-0.544742
-0.547304
-0.550871
-0.554588
-0.557825
-0.560257
-0.562158
-0.563071
-0.350019
-0.350539
-0.353269
-0.358132
-0.364942
-0.373493
-0.383843
-0.396068
-0.410020
-0.425566
-0.442437
-0.459993
-0.477664
-0.495059
-0.511620
-0.526263
-0.537721
-0.546784
-0.555265
-0.563574
-0.571303
-0.577448
-0.581407
-0.583706
-0.585051
-0.585832
-0.586386
-0.587102
-0.588456
-0.590953
-0.594469
-0.598190
-0.601467
-0.603947
-0.605868
-0.606785
-0.393808
-0.394302
-0.396902
-0.401538
-0.408052
-0.416252
-0.426164
-0.437874
-0.451270
-0.466233
-0.482629
-0.499953
-0.517578
-0.535082
-0.552035
-0.567500
-0.579955
-0.589571
-0.598164
-0.606516
-0.614372
-0.620803
-0.625015
-0.627408
-0.628782
-0.629573
-0.630131
-0.630843
-0.632171
-0.634605
-0.638069
-0.641788
-0.645104
-0.647634
-0.649579
-0.650499
-0.437604
-0.438074
-0.440552
-0.444979
-0.451225
-0.459110
-0.468631
-0.479859
-0.492715
-0.507106
-0.522986
-0.539997
-0.557516
-0.575060
-0.592266
-0.608400
-0.621908
-0.632265
-0.641044
-0.649452
-0.657417
-0.664116
-0.668600
-0.671107
-0.672514
-0.673315
-0.673876
-0.674585
-0.675888
-0.678262
-0.681670
-0.685382
-0.688736
-0.691317
-0.693289
-0.694214
-0.481407
-0.481853
-0.484219
-0.488457
-0.494462
-0.502055
-0.511211
-0.521981
-0.534323
-0.548171
-0.563525
-0.580153
-0.597502
-0.615031
-0.632380
-0.649005
-0.663531
-0.674798
-0.683889
-0.692377
-0.700441
-0.707385
-0.712155
-0.714802
-0.716245
-0.717057
-0.717621
-0.718327
-0.719607
-0.721923
-0.725275
-0.728974
-0.732362
-0.734997
-0.736998
-0.737929
-0.525214
-0.525639
-0.527903
-0.531971
-0.537749
-0.545064
-0.553875
-0.564218
-0.576087
-0.589436
-0.604266
-0.620450
-0.637554
-0.655016
-0.672434
-0.689387
-0.704791
-0.717087
-0.726677
-0.735290
-0.743448
-0.750613
-0.755680
-0.758492
-0.759975
-0.760798
-0.761366
-0.762069
-0.763328
-0.765587
-0.768882
-0.772566
-0.775985
-0.778674
-0.780707
-0.781644
-0.569025
-0.569432
-0.571605
-0.575513
-0.581073
-0.588122
-0.596611
-0.606570
-0.618020
-0.630919
-0.645230
-0.660918
-0.677695
-0.695036
-0.712470
-0.729624
-0.745709
-0.759076
-0.769374
-0.778182
-0.786440
-0.793803
-0.799170
-0.802175
-0.803704
-0.804540
-0.805112
-0.805812
-0.807050
-0.809255
-0.812492
-0.816158
-0.819605
-0.822347
-0.824415
-0.825360
-0.612840
-0.613231
-0.615322
-0.619077
-0.624428
-0.631229
-0.639424
-0.649045
-0.660119
-0.672589
-0.686398
-0.701570
-0.717952
-0.735101
-0.752499
-0.769764
-0.786335
-0.800735
-0.811922
-0.821037
-0.829415
-0.836957
-0.842627
-0.845850
-0.847433
-0.848282
-0.848857
-0.849554
-0.850773
-0.852925
-0.856106
-0.859753
-0.863223
-0.866018
-0.868123
-0.869075
-0.656658
-0.657035
-0.659048
-0.662658
-0.667815
-0.674387
-0.682319
-0.691632
-0.702341
-0.714388
-0.727727
-0.742397
-0.758344
-0.775234
-0.792548
-0.809859
-0.826741
-0.842035
-0.854238
-0.863833
-0.872369
-0.880079
-0.886049
-0.889513
-0.891161
-0.892024
-0.892603
-0.893297
-0.894497
-0.896598
-0.899723
-0.903350
-0.906840
-0.909685
-0.911830
-0.912791
-0.700481
-0.700843
-0.702781
-0.706257
-0.711235
-0.717600
-0.725288
-0.734304
-0.744654
-0.756295
-0.769195
-0.783392
-0.798888
-0.815459
-0.832637
-0.849945
-0.867010
-0.882998
-0.896263
-0.906539
-0.915297
-0.923177
-0.929436
-0.933158
-0.934887
-0.935765
-0.936348
-0.937040
-0.938222
-0.940274
-0.943345
-0.946948
-0.950454
-0.953350
-0.955536
-0.956507
-0.722393
-0.722748
-0.724649
-0.728060
-0.732954
-0.739220
-0.746788
-0.755657
-0.765830
-0.777275
-0.789963
-0.803931
-0.819200
-0.835598
-0.852692
-0.869988
-0.887122
-0.903406
-0.917199
-0.927866
-0.936754
-0.944722
-0.951122
-0.954976
-0.956750
-0.957636
-0.958221
-0.958912
-0.960085
-0.962113
-0.965156
-0.968748
-0.972261
-0.975181
-0.977388
-0.978366
</DataArray>
<DataArray NumberOfComponents="1" format="ascii" type ="Float32" Name="u">
-0.003036
0.000524
0.004261
0.008241
0.012480
0.016957
0.021486
0.024961
0.027078
0.027449
0.026520
0.025283
0.024626
0.023863
0.022901
0.021885
0.021434
0.021804
0.021846
0.021628
0.021244
0.020757
0.020206
0.019612
0.018994
0.018381
0.017833
0.017484
0.017545
0.018153
0.018672
0.019034
0.019268
0.019405
0.019464
0.019464
-0.002710
0.000913
0.004691
0.008655
0.012668
0.016630
0.020523
0.023041
0.024139
0.024188
0.023683
0.022668
0.022681
0.022326
0.021711
0.021194
0.021141
0.021320
0.021312
0.021119
0.020792
0.020374
0.019902
0.019404
0.018915
0.018484
0.018183
0.018105
0.018307
0.018708
0.019067
0.019341
0.019530
0.019644
0.019690
0.019690
-0.002138
0.001430
0.005127
0.008951
0.012668
0.016053
0.018992
0.021057
0.021854
0.021946
0.021885
0.021517
0.021468
0.021228
0.020911
0.020734
0.020775
0.020827
0.020754
0.020564
0.020286
0.019951
0.019588
0.019226
0.018902
0.018658
0.018544
0.018592
0.018787
0.019050
0.019289
0.019480
0.019616
0.019697
0.019727
0.019727
-0.001377
0.002025
0.005483
0.008956
0.012379
0.015562
0.017828
0.019577
0.020399
0.020664
0.020663
0.020561
0.020518
0.020394
0.020276
0.020250
0.020290
0.020284
0.020191
0.020025
0.019809
0.019564
0.019313
0.019083
0.018900
0.018794
0.018783
0.018870
0.019025
0.019201
0.019361
0.019491
0.019584
0.019638
0.019657
0.019657
-0.000863
0.002415
0.005675
0.008861
0.012008
0.014922
0.016961
0.018400
0.019133
0.019481
0.019603
0.019647
0.019672
0.019661
0.019665
0.019704
0.019740
0.019725
0.019650
0.019530
0.019382
0.019224
0.019074
0.018950
0.018869
0.018846
0.018885
0.018975
0.019094
0.019217
0.019328
0.019417
0.019480
0.019515
0.019525
0.019525
-0.000716
0.002482
0.005639
0.008700
0.011599
0.014079
0.015925
0.017202
0.017948
0.018376
0.018618
0.018774
0.018885
0.018970
0.019053
0.019131
0.019181
0.019186
0.019150
0.019085
0.019005
0.018924
0.018854
0.018808
0.018795
0.018819
0.018879
0.018963
0.019057
0.019149
0.019229
0.019293
0.019337
0.019360
0.019365
0.019365
-0.000668
0.002415
0.005444
0.008337
0.010983
0.013199
0.014887
0.016078
0.016854
0.017361
0.017704
0.017954
0.018150
0.018312
0.018451
0.018566
0.018645
0.018687
0.018698
0.018689
0.018670
0.018652
0.018644
0.018653
0.018683
0.018734
0.018803
0.018881
0.018961
0.019035
0.019097
0.019146
0.019178
0.019193
0.019194
0.019194
-0.000645
0.002298
0.005171
0.007880
0.010307
0.012331
0.013901
0.015048
0.015859
0.016437
0.016864
0.017196
0.017465
0.017690
0.017879
0.018033
0.018150
0.018234
0.018293
0.018335
0.018368
0.018401
0.018440
0.018487
0.018545
0.018614
0.018688
0.018764
0.018835
0.018899
0.018952
0.018991
0.019015
0.019026
0.019026
0.019026
-0.000626
0.002155
0.004859
0.007384
0.009627
0.011503
0.012988
0.014116
0.014961
0.015601
0.016100
0.016501
0.016834
0.017113
0.017348
0.017542
0.017700
0.017827
0.017930
0.018017
0.018094
0.018168
0.018241
0.018316
0.018395
0.018475
0.018554
0.018629
0.018698
0.018756
0.018803
0.018837
0.018858
0.018866
0.018865
0.018865
-0.000603
0.002003
0.004533
0.006886
0.008973
0.010733
0.012158
0.013279
0.014156
0.014849
0.015408
0.015869
0.016256
0.016583
0.016862
0.017096
0.017294
0.017461
0.017604
0.017730
0.017843
0.017948
0.018048
0.018145
0.018239
0.018328
0.018412
0.018489
0.018556
0.018612
0.018656
0.018688
0.018706
0.018713
0.018711
0.018711
-0.000576
0.001855
0.004215
0.006409
0.008363
0.010032
0.011412
0.012532
0.013437
0.014175
0.014785
0.015296
0.015731
0.016102
0.016420
0.016693
0.016927
0.017130
0.017308
0.017466
0.017608
0.017739
0.017860
0.017973
0.018079
0.018176
0.018265
0.018344
0.018411
0.018467
0.018510
0.018540
0.018557
0.018564
0.018562
0.018562
-0.000546
0.001716
0.003916
0.005969
0.007809
0.009404
0.010749
0.011868
0.012797
0.013571
0.014223
0.014778
0.015253
0.015662
0.016016
0.016323
0.016590
0.016824
0.017030
0.017214
0.017380
0.017531
0.017669
0.017795
0.017910
0.018014
0.018106
0.018187
0.018256
0.018312
0.018354
0.018383
0.018400
0.018406
0.018405
0.018405
-0.000514
0.001592
0.003645
0.005571
0.007314
0.008845
0.010161
0.011278
0.012225
0.013028
0.013714
0.014303
0.014811
0.015253
0.015636
0.015972
0.016265
0.016524
0.016754
0.016958
0.017142
0.017308
0.017458
0.017593
0.017715
0.017823
0.017919
0.018001
0.018070
0.018125
0.018167
0.018196
0.018213
0.018218
0.018216
0.018216
-0.000483
0.001481
0.003403
0.005216
0.006872
0.008347
0.009634
0.010746
0.011703
0.012526
0.013235
0.013850
0.014384
0.014849
0.015255
0.015612
0.015925
0.016201
0.016447
0.016665
0.016861
0.017036
0.017193
0.017333
0.017458
0.017569
0.017664
0.017746
0.017814
0.017868
0.017909
0.017936
0.017952
0.017957
0.017955
0.017955
-0.000455
0.001382
0.003184
0.004894
0.006470
0.007890
0.009146
0.010245
0.011201
0.012032
0.012754
0.013382
0.013929
0.014408
0.014826
0.015193
0.015516
0.015801
0.016054
0.016277
0.016477
0.016654
0.016812
0.016952
0.017075
0.017183
0.017276
0.017355
0.017419
0.017469
0.017506
0.017531
0.017544
0.017548
0.017545
0.017545
-0.000431
0.001286
0.002974
0.004585
0.006081
0.007440
0.008655
0.009727
0.010668
0.011489
0.012206
0.012830
0.013375
0.013851
0.014266
0.014630
0.014949
0.015230
0.015477
0.015695
0.015888
0.016058
0.016209
0.016341
0.016456
0.016556
0.016640
0.016710
0.016767
0.016810
0.016841
0.016860
0.016869
0.016870
0.016866
0.016866
-0.000411
0.001181
0.002749
0.004250
0.005652
0.006934
0.008085
0.009107
0.010006
0.010793
0.011478
0.012074
0.012592
0.013042
0.013433
0.013774