<VTKFile type="StructuredGrid" version="0.1" byte_order="LittleEndian">
<StructuredGrid WholeExtent="1 71 1 81 0 0">
<Piece Extent="36 71 41 61 0 0">
<PointData></PointData>
<CellData></CellData>
<Points>
<DataArray NumberOfComponents="3" format="ascii" type ="Float32" Name="mesh">
1.500000 1.750000 0.0
1.542857 1.750000 0.0
1.585714 1.750000 0.0
1.628571 1.750000 0.0
1.671429 1.750000 0.0
1.714286 1.750000 0.0
1.757143 1.750000 0.0
1.800000 1.750000 0.0
1.842857 1.750000 0.0
1.885714 1.750000 0.0
1.928571 1.750000 0.0
1.971429 1.750000 0.0
2.014286 1.750000 0.0
2.057143 1.750000 0.0
2.100000 1.750000 0.0
2.142857 1.750000 0.0
2.185714 1.750000 0.0
2.228571 1.750000 0.0
2.271429 1.750000 0.0
2.314286 1.750000 0.0
2.357143 1.750000 0.0
2.400000 1.750000 0.0
2.442857 1.750000 0.0
2.485714 1.750000 0.0
2.528571 1.750000 0.0
2.571429 1.750000 0.0
2.614286 1.750000 0.0
2.657143 1.750000 0.0
2.700000 1.750000 0.0
2.742857 1.750000 0.0
2.785714 1.750000 0.0
2.828571 1.750000 0.0
2.871429 1.750000 0.0
2.914286 1.750000 0.0
2.957143 1.750000 0.0
3.000000 1.750000 0.0
1.500000 1.793750 0.0
1.542857 1.793750 0.0
1.585714 1.793750 0.0
1.628571 1.793750 0.0
1.671429 1.793750 0.0
1.714286 1.793750 0.0
1.757143 1.793750 0.0
1.800000 1.793750 0.0
1.842857 1.793750 0.0
1.885714 1.793750 0.0
1.928571 1.793750 0.0
1.971429 1.793750 0.0
2.014286 1.793750 0.0
2.057143 1.793750 0.0
2.100000 1.793750 0.0
2.142857 1.793750 0.0
2.185714 1.793750 0.0
2.228571 1.793750 0.0
2.271429 1.793750 0.0
2.314286 1.793750 0.0
2.357143 1.793750 0.0
2.400000 1.793750 0.0
2.442857 1.793750 0.0
2.485714 1.793750 0.0
2.528571 1.793750 0.0
2.571429 1.793750 0.0
2.614286 1.793750 0.0
2.657143 1.793750 0.0
2.700000 1.793750 0.0
2.742857 1.793750 0.0
2.785714 1.793750 0.0
2.828571 1.793750 0.0
2.871429 1.793750 0.0
2.914286 1.793750 0.0
2.957143 1.793750 0.0
3.000000 1.793750 0.0
1.500000 1.837500 0.0
1.542857 1.837500 0.0
1.585714 1.837500 0.0
1.628571 1.837500 0.0
1.671429 1.837500 0.0
1.714286 1.837500 0.0
1.757143 1.837500 0.0
1.800000 1.837500 0.0
1.842857 1.837500 0.0
1.885714 1.837500 0.0
1.928571 1.837500 0.0
1.971429 1.837500 0.0
2.014286 1.837500 0.0
2.057143 1.837500 0.0
2.100000 1.837500 0.0
2.142857 1.837500 0.0
2.185714 1.837500 0.0
2.228571 1.837500 0.0
2.271429 1.837500 0.0
2.314286 1.837500 0.0
2.357143 1.837500 0.0
2.400000 1.837500 0.0
2.442857 1.837500 0.0
2.485714 1.837500 0.0
2.528571 1.837500 0.0
2.571429 1.837500 0.0
2.614286 1.837500 0.0
2.657143 1.837500 0.0
2.700000 1.837500 0.0
2.742857 1.837500 0.0
2.785714 1.837500 0.0
2.828571 1.837500 0.0
2.871429 1.837500 0.0
2.914286 1.837500 0.0
2.957143 1.837500 0.0
3.000000 1.837500 0.0
1.500000 1.881250 0.0
1.542857 1.881250 0.0
1.585714 1.881250 0.0
1.628571 1.881250 0.0
1.671429 1.881250 0.0
1.714286 1.881250 0.0
1.757143 1.881250 0.0
1.800000 1.881250 0.0
1.842857 1.881250 0.0
1.885714 1.881250 0.0
1.928571 1.881250 0.0
1.971429 1.881250 0.0
2.014286 1.881250 0.0
2.057143 1.881250 0.0
2.100000 1.881250 0.0
2.142857 1.881250 0.0
2.185714 1.881250 0.0
2.228571 1.881250 0.0
2.271429 1.881250 0.0
2.314286 1.881250 0.0
2.357143 1.881250 0.0
2.400000 1.881250 0.0
2.442857 1.881250 0.0
2.485714 1.881250 0.0
2.528571 1.881250 0.0
2.571429 1.881250 0.0
2.614286 1.881250 0.0
2.657143 1.881250 0.0
2.700000 1.881250 0.0
2.742857 1.881250 0.0
2.785714 1.881250 0.0
2.828571 1.881250 0.0
2.871429 1.881250 0.0
2.914286 1.881250 0.0
2.957143 1.881250 0.0
3.000000 1.881250 0.0
1.500000 1.925000 0.0
1.542857 1.925000 0.0
1.585714 1.925000 0.0
1.628571 1.925000 0.0
1.671429 1.925000 0.0
1.714286 1.925000 0.0
1.757143 1.925000 0.0
1.800000 1.925000 0.0
1.842857 1.925000 0.0
1.885714 1.925000 0.0
1.928571 1.925000 0.0
1.971429 1.925000 0.0
2.014286 1.925000 0.0
2.057143 1.925000 0.0
2.100000 1.925000 0.0
2.142857 1.925000 0.0
2.185714 1.925000 0.0
2.228571 1.925000 0.0
2.271429 1.925000 0.0
2.314286 1.925000 0.0
2.357143 1.925000 0.0
2.400000 1.925000 0.0
2.442857 1.925000 0.0
2.485714 1.925000 0.0
2.528571 1.925000 0.0
2.571429 1.925000 0.0
2.614286 1.925000 0.0
2.657143 1.925000 0.0
2.700000 1.925000 0.0
2.742857 1.925000 0.0
2.785714 1.925000 0.0
2.828571 1.925000 0.0
2.871429 1.925000 0.0
2.914286 1.925000 0.0
2.957143 1.925000 0.0
3.000000 1.925000 0.0
1.500000 1.968750 0.0
1.542857 1.968750 0.0
1.585714 1.968750 0.0
1.628571 1.968750 0.0
1.671429 1.968750 0.0
1.714286 1.968750 0.0
1.757143 1.968750 0.0
1.800000 1.968750 0.0
1.842857 1.968750 0.0
1.885714 1.968750 0.0
1.928571 1.968750 0.0
1.971429 1.968750 0.0
2.014286 1.968750 0.0
2.057143 1.968750 0.0
2.100000 1.968750 0.0
2.142857 1.968750 0.0
2.185714 1.968750 0.0
2.228571 1.968750 0.0
2.271429 1.968750 0.0
2.314286 1.968750 0.0
2.357143 1.968750 0.0
2.400000 1.968750 0.0
2.442857 1.968750 0.0
2.485714 1.968750 0.0
2.528571 1.968750 0.0
2.571429 1.968750 0.0
2.614286 1.968750 0.0
2.657143 1.968750 0.0
2.700000 1.968750 0.0
2.742857 1.968750 0.0
2.785714 1.968750 0.0
2.828571 1.968750 0.0
2.871429 1.968750 0.0
2.914286 1.968750 0.0
2.957143 1.968750 0.0
3.000000 1.968750 0.0
1.500000 2.012500 0.0
1.542857 2.012500 0.0
1.585714 2.012500 0.0
1.628571 2.012500 0.0
1.671429 2.012500 0.0
1.714286 2.012500 0.0
1.757143 2.012500 0.0
1.800000 2.012500 0.0
1.842857 2.012500 0.0
1.885714 2.012500 0.0
1.928571 2.012500 0.0
1.971429 2.012500 0.0
2.014286 2.012500 0.0
2.057143 2.012500 0.0
2.100000 2.012500 0.0
2.142857 2.012500 0.0
2.185714 2.012500 0.0
2.228571 2.012500 0.0
2.271429 2.012500 0.0
2.314286 2.012500 0.0
2.357143 2.012500 0.0
2.400000 2.012500 0.0
2.442857 2.012500 0.0
2.485714 2.012500 0.0
2.528571 2.012500 0.0
2.571429 2.012500 0.0
2.614286 2.012500 0.0
2.657143 2.012500 0.0
2.700000 2.012500 0.0
2.742857 2.012500 0.0
2.785714 2.012500 0.0
2.828571 2.012500 0.0
2.871429 2.012500 0.0
2.914286 2.012500 0.0
2.957143 2.012500 0.0
3.000000 2.012500 0.0
1.500000 2.056250 0.0
1.542857 2.056250 0.0
1.585714 2.056250 0.0
1.628571 2.056250 0.0
1.671429 2.056250 0.0
1.714286 2.056250 0.0
1.757143 2.056250 0.0
1.800000 2.056250 0.0
1.842857 2.056250 0.0
1.885714 2.056250 0.0
1.928571 2.056250 0.0
1.971429 2.056250 0.0
2.014286 2.056250 0.0
2.057143 2.056250 0.0
2.100000 2.056250 0.0
2.142857 2.056250 0.0
2.185714 2.056250 0.0
2.228571 2.056250 0.0
2.271429 2.056250 0.0
2.314286 2.056250 0.0
2.357143 2.056250 0.0
2.400000 2.056250 0.0
2.442857 2.056250 0.0
2.485714 2.056250 0.0
2.528571 2.056250 0.0
2.571429 2.056250 0.0
2.614286 2.056250 0.0
2.657143 2.056250 0.0
2.700000 2.056250 0.0
2.742857 2.056250 0.0
2.785714 2.056250 0.0
2.828571 2.056250 0.0
2.871429 2.056250 0.0
2.914286 2.056250 0.0
2.957143 2.056250 0.0
3.000000 2.056250 0.0
1.500000 2.100000 0.0
1.542857 2.100000 0.0
1.585714 2.100000 0.0
1.628571 2.100000 0.0
1.671429 2.100000 0.0
1.714286 2.100000 0.0
1.757143 2.100000 0.0
1.800000 2.100000 0.0
1.842857 2.100000 0.0
1.885714 2.100000 0.0
1.928571 2.100000 0.0
1.971429 2.100000 0.0
2.014286 2.100000 0.0
2.057143 2.100000 0.0
2.100000 2.100000 0.0
2.142857 2.100000 0.0
2.185714 2.100000 0.0
2.228571 2.100000 0.0
2.271429 2.100000 0.0
2.314286 2.100000 0.0
2.357143 2.100000 0.0
2.400000 2.100000 0.0
2.442857 2.100000 0.0
2.485714 2.100000 0.0
2.528571 2.100000 0.0
2.571429 2.100000 0.0
2.614286 2.100000 0.0
2.657143 2.100000 0.0
2.700000 2.100000 0.0
2.742857 2.100000 0.0
2.785714 2.100000 0.0
2.828571 2.100000 0.0
2.871429 2.100000 0.0
2.914286 2.100000 0.0
2.957143 2.100000 0.0
3.000000 2.100000 0.0
1.500000 2.143750 0.0
1.542857 2.143750 0.0
1.585714 2.143750 0.0
1.628571 2.143750 0.0
1.671429 2.143750 0.0
1.714286 2.143750 0.0
1.757143 2.143750 0.0
1.800000 2.143750 0.0
1.842857 2.143750 0.0
1.885714 2.143750 0.0
1.928571 2.143750 0.0
1.971429 2.143750 0.0
2.014286 2.143750 0.0
2.057143 2.143750 0.0
2.100000 2.143750 0.0
2.142857 2.143750 0.0
2.185714 2.143750 0.0
2.228571 2.143750 0.0
2.271429 2.143750 0.0
2.314286 2.143750 0.0
2.357143 2.143750 0.0
2.400000 2.143750 0.0
2.442857 2.143750 0.0
2.485714 2.143750 0.0
2.528571 2.143750 0.0
2.571429 2.143750 0.0
2.614286 2.143750 0.0
2.657143 2.143750 0.0
2.700000 2.143750 0.0
2.742857 2.143750 0.0
2.785714 2.143750 0.0
2.828571 2.143750 0.0
2.871429 2.143750 0.0
2.914286 2.143750 0.0
2.957143 2.143750 0.0
3.000000 2.143750 0.0
1.500000 2.187500 0.0
1.542857 2.187500 0.0
1.585714 2.187500 0.0
1.628571 2.187500 0.0
1.671429 2.187500 0.0
1.714286 2.187500 0.0
1.757143 2.187500 0.0
1.800000 2.187500 0.0
1.842857 2.187500 0.0
1.885714 2.187500 0.0
1.928571 2.187500 0.0
1.971429 2.187500 0.0
2.014286 2.187500 0.0
2.057143 2.187500 0.0
2.100000 2.187500 0.0
2.142857 2.187500 0.0
2.185714 2.187500 0.0
2.228571 2.187500 0.0
2.271429 2.187500 0.0
2.314286 2.187500 0.0
2.357143 2.187500 0.0
2.400000 2.187500 0.0
2.442857 2.187500 0.0
2.485714 2.187500 0.0
2.528571 2.187500 0.0
2.571429 2.187500 0.0
2.614286 2.187500 0.0
2.657143 2.187500 0.0
2.700000 2.187500 0.0
2.742857 2.187500 0.0
2.785714 2.187500 0.0
2.828571 2.187500 0.0
2.871429 2.187500 0.0
2.914286 2.187500 0.0
2.957143 2.187500 0.0
3.000000 2.187500 0.0
1.500000 2.231250 0.0
1.542857 2.231250 0.0
1.585714 2.231250 0.0
1.628571 2.231250 0.0
1.671429 2.231250 0.0
1.714286 2.231250 0.0
1.757143 2.231250 0.0
1.800000 2.231250 0.0
1.842857 2.231250 0.0
1.885714 2.231250 0.0
1.928571 2.231250 0.0
1.971429 2.231250 0.0
2.014286 2.231250 0.0
2.057143 2.231250 0.0
2.100000 2.231250 0.0
2.142857 2.231250 0.0
2.185714 2.231250 0.0
2.228571 2.231250 0.0
2.271429 2.231250 0.0
2.314286 2.231250 0.0
2.357143 2.231250 0.0
2.400000 2.231250 0.0
2.442857 2.231250 0.0
2.485714 2.231250 0.0
2.528571 2.231250 0.0
2.571429 2.231250 0.0
2.614286 2.231250 0.0
2.657143 2.231250 0.0
2.700000 2.231250 0.0
2.742857 2.231250 0.0
2.785714 2.231250 0.0
2.828571 2.231250 0.0
2.871429 2.231250 0.0
2.914286 2.231250 0.0
2.957143 2.231250 0.0
3.000000 2.231250 0.0
1.500000 2.275000 0.0
1.542857 2.275000 0.0
1.585714 2.275000 0.0
1.628571 2.275000 0.0
1.671429 2.275000 0.0
1.714286 2.275000 0.0
1.757143 2.275000 0.0
1.800000 2.275000 0.0
1.842857 2.275000 0.0
1.885714 2.275000 0.0
1.928571 2.275000 0.0
1.971429 2.275000 0.0
2.014286 2.275000 0.0
2.057143 2.275000 0.0
2.100000 2.275000 0.0
2.142857 2.275000 0.0
2.185714 2.275000 0.0
2.228571 2.275000 0.0
2.271429 2.275000 0.0
2.314286 2.275000 0.0
2.357143 2.275000 0.0
2.400000 2.275000 0.0
2.442857 2.275000 0.0
2.485714 2.275000 0.0
2.528571 2.275000 0.0
2.571429 2.275000 0.0
2.614286 2.275000 0.0
2.657143 2.275000 0.0
2.700000 2.275000 0.0
2.742857 2.275000 0.0
2.785714 2.275000 0.0
2.828571 2.275000 0.0
2.871429 2.275000 0.0
2.914286 2.275000 0.0
2.957143 2.275000 0.0
3.000000 2.275000 0.0
1.500000 2.318750 0.0
1.542857 2.318750 0.0
1.585714 2.318750 0.0
1.628571 2.318750 0.0
1.671429 2.318750 0.0
1.714286 2.318750 0.0
1.757143 2.318750 0.0
1.800000 2.318750 0.0
1.842857 2.318750 0.0
1.885714 2.318750 0.0
1.928571 2.318750 0.0
1.971429 2.318750 0.0
2.014286 2.318750 0.0
2.057143 2.318750 0.0
2.100000 2.318750 0.0
2.142857 2.318750 0.0
2.185714 2.318750 0.0
2.228571 2.318750 0.0
2.271429 2.318750 0.0
2.314286 2.318750 0.0
2.357143 2.318750 0.0
2.400000 2.318750 0.0
2.442857 2.318750 0.0
2.485714 2.318750 0.0
2.528571 2.318750 0.0
2.571429 2.318750 0.0
2.614286 2.318750 0.0
2.657143 2.318750 0.0
2.700000 2.318750 0.0
2.742857 2.318750 0.0
2.785714 2.318750 0.0
2.828571 2.318750 0.0
2.871429 2.318750 0.0
2.914286 2.318750 0.0
2.957143 2.318750 0.0
3.000000 2.318750 0.0
1.500000 2.362500 0.0
1.542857 2.362500 0.0
1.585714 2.362500 0.0
1.628571 2.362500 0.0
1.671429 2.362500 0.0
1.714286 2.362500 0.0
1.757143 2.362500 0.0
1.800000 2.362500 0.0
1.842857 2.362500 0.0
1.885714 2.362500 0.0
1.928571 2.362500 0.0
1.971429 2.362500 0.0
2.014286 2.362500 0.0
2.057143 2.362500 0.0
2.100000 2.362500 0.0
2.142857 2.362500 0.0
2.185714 2.362500 0.0
2.228571 2.362500 0.0
2.271429 2.362500 0.0
2.314286 2.362500 0.0
2.357143 2.362500 0.0
2.400000 2.362500 0.0
2.442857 2.362500 0.0
2.485714 2.362500 0.0
2.528571 2.362500 0.0
2.571429 2.362500 0.0
2.614286 2.362500 0.0
2.657143 2.362500 0.0
2.700000 2.362500 0.0
2.742857 2.362500 0.0
2.785714 2.362500 0.0
2.828571 2.362500 0.0
2.871429 2.362500 0.0
2.914286 2.362500 0.0
2.957143 2.362500 0.0
3.000000 2.362500 0.0
1.500000 2.406250 0.0
1.542857 2.406250 0.0
1.585714 2.406250 0.0
1.628571 2.406250 0.0
1.671429 2.406250 0.0
1.714286 2.406250 0.0
1.757143 2.406250 0.0
1.800000 2.406250 0.0
1.842857 2.406250 0.0
1.885714 2.406250 0.0
1.928571 2.406250 0.0
1.971429 2.406250 0.0
2.014286 2.406250 0.0
2.057143 2.406250 0.0
2.100000 2.406250 0.0
2.142857 2.406250 0.0
2.185714 2.406250 0.0
2.228571 2.406250 0.0
2.271429 2.406250 0.0
2.314286 2.406250 0.0
2.357143 2.406250 0.0
2.400000 2.406250 0.0
2.442857 2.406250 0.0
2.485714 2.406250 0.0
2.528571 2.406250 0.0
2.571429 2.406250 0.0
2.614286 2.406250 0.0
2.657143 2.406250 0.0
2.700000 2.406250 0.0
2.742857 2.406250 0.0
2.785714 2.406250 0.0
2.828571 2.406250 0.0
2.871429 2.406250 0.0
2.914286 2.406250 0.0
2.957143 2.406250 0.0
3.000000 2.406250 0.0
1.500000 2.450000 0.0
1.542857 2.450000 0.0
1.585714 2.450000 0.0
1.628571 2.450000 0.0
1.671429 2.450000 0.0
1.714286 2.450000 0.0
1.757143 2.450000 0.0
1.800000 2.450000 0.0
1.842857 2.450000 0.0
1.885714 2.450000 0.0
1.928571 2.450000 0.0
1.971429 2.450000 0.0
2.014286 2.450000 0.0
2.057143 2.450000 0.0
2.100000 2.450000 0.0
2.142857 2.450000 0.0
2.185714 2.450000 0.0
2.228571 2.450000 0.0
2.271429 2.450000 0.0
2.314286 2.450000 0.0
2.357143 2.450000 0.0
2.400000 2.450000 0.0
2.442857 2.450000 0.0
2.485714 2.450000 0.0
2.528571 2.450000 0.0
2.571429 2.450000 0.0
2.614286 2.450000 0.0
2.657143 2.450000 0.0
2.700000 2.450000 0.0
2.742857 2.450000 0.0
2.785714 2.450000 0.0
2.828571 2.450000 0.0
2.871429 2.450000 0.0
2.914286 2.450000 0.0
2.957143 2.450000 0.0
3.000000 2.450000 0.0
1.500000 2.493750 0.0
1.542857 2.493750 0.0
1.585714 2.493750 0.0
1.628571 2.493750 0.0
1.671429 2.493750 0.0
1.714286 2.493750 0.0
1.757143 2.493750 0.0
1.800000 2.493750 0.0
1.842857 2.493750 0.0
1.885714 2.493750 0.0
1.928571 2.493750 0.0
1.971429 2.493750 0.0
2.014286 2.493750 0.0
2.057143 2.493750 0.0
2.100000 2.493750 0.0
2.142857 2.493750 0.0
2.185714 2.493750 0.0
2.228571 2.493750 0.0
2.271429 2.493750 0.0
2.314286 2.493750 0.0
2.357143 2.493750 0.0
2.400000 2.493750 0.0
2.442857 2.493750 0.0
2.485714 2.493750 0.0
2.528571 2.493750 0.0
2.571429 2.493750 0.0
2.614286 2.493750 0.0
2.657143 2.493750 0.0
2.700000 2.493750 0.0
2.742857 2.493750 0.0
2.785714 2.493750 0.0
2.828571 2.493750 0.0
2.871429 2.493750 0.0
2.914286 2.493750 0.0
2.957143 2.493750 0.0
3.000000 2.493750 0.0
1.500000 2.537500 0.0
1.542857 2.537500 0.0
1.585714 2.537500 0.0
1.628571 2.537500 0.0
1.671429 2.537500 0.0
1.714286 2.537500 0.0
1.757143 2.537500 0.0
1.800000 2.537500 0.0
1.842857 2.537500 0.0
1.885714 2.537500 0.0
1.928571 2.537500 0.0
1.971429 2.537500 0.0
2.014286 2.537500 0.0
2.057143 2.537500 0.0
2.100000 2.537500 0.0
2.142857 2.537500 0.0
2.185714 2.537500 0.0
2.228571 2.537500 0.0
2.271429 2.537500 0.0
2.314286 2.537500 0.0
2.357143 2.537500 0.0
2.400000 2.537500 0.0
2.442857 2.537500 0.0
2.485714 2.537500 0.0
2.528571 2.537500 0.0
2.571429 2.537500 0.0
2.614286 2.537500 0.0
2.657143 2.537500 0.0
2.700000 2.537500 0.0
2.742857 2.537500 0.0
2.785714 2.537500 0.0
2.828571 2.537500 0.0
2.871429 2.537500 0.0
2.914286 2.537500 0.0
2.957143 2.537500 0.0
3.000000 2.537500 0.0
1.500000 2.581250 0.0
1.542857 2.581250 0.0
1.585714 2.581250 0.0
1.628571 2.581250 0.0
1.671429 2.581250 0.0
1.714286 2.581250 0.0
1.757143 2.581250 0.0
1.800000 2.581250 0.0
1.842857 2.581250 0.0
1.885714 2.581250 0.0
1.928571 2.581250 0.0
1.971429 2.581250 0.0
2.014286 2.581250 0.0
2.057143 2.581250 0.0
2.100000 2.581250 0.0
2.142857 2.581250 0.0
2.185714 2.581250 0.0
2.228571 2.581250 0.0
2.271429 2.581250 0.0
2.314286 2.581250 0.0
2.357143 2.581250 0.0
2.400000 2.581250 0.0
2.442857 2.581250 0.0
2.485714 2.581250 0.0
2.528571 2.581250 0.0
2.571429 2.581250 0.0
2.614286 2.581250 0.0
2.657143 2.581250 0.0
2.700000 2.581250 0.0
2.742857 2.581250 0.0
2.785714 2.581250 0.0
2.828571 2.581250 0.0
2.871429 2.581250 0.0
2.914286 2.581250 0.0
2.957143 2.581250 0.0
3.000000 2.581250 0.0
1.500000 2.625000 0.0
1.542857 2.625000 0.0
1.585714 2.625000 0.0
1.628571 2.625000 0.0
1.671429 2.625000 0.0
1.714286 2.625000 0.0
1.757143 2.625000 0.0
1.800000 2.625000 0.0
1.842857 2.625000 0.0
1.885714 2.625000 0.0
1.928571 2.625000 0.0
1.971429 2.625000 0.0
2.014286 2.625000 0.0
2.057143 2.625000 0.0
2.100000 2.625000 0.0
2.142857 2.625000 0.0
2.185714 2.625000 0.0
2.228571 2.625000 0.0
2.271429 2.625000 0.0
2.314286 2.625000 0.0
2.357143 2.625000 0.0
2.400000 2.625000 0.0
2.442857 2.625000 0.0
2.485714 2.625000 0.0
2.528571 2.625000 0.0
2.571429 2.625000 0.0
2.614286 2.625000 0.0
2.657143 2.625000 0.0
2.700000 2.625000 0.0
2.742857 2.625000 0.0
2.785714 2.625000 0.0
2.828571 2.625000 0.0
2.871429 2.625000 0.0
2.914286 2.625000 0.0
2.957143 2.625000 0.0
3.000000 2.625000 0.0
</DataArray></Points>
<PointData>
<DataArray NumberOfComponents="1" format="ascii" type ="Float32" Name="phi">
-0.086239
-0.082580
-0.080556
-0.079161
-0.077257
-0.074223
-0.069663
-0.063508
-0.055315
-0.043320
-0.026783
-0.007703
0.008057
0.028547
0.062710
0.102212
0.142159
0.182514
0.223184
0.264108
0.305269
0.346639
0.388162
0.429798
0.471537
0.513389
0.555350
0.597398
0.639514
0.681500
0.720020
0.744464
0.751027
0.750063
0.748793
0.737276
-0.129762
-0.126260
-0.124288
-0.122880
-0.120930
-0.117781
-0.113044
-0.106600
-0.097476
-0.082187
-0.059222
-0.031570
-0.009664
0.012093
0.046735
0.087478
0.128497
0.169771
0.211251
0.252893
0.294681
0.336604
0.378634
0.420742
0.462913
0.505151
0.547461
0.589836
0.632165
0.672112
0.699640
0.708524
0.707866
0.706341
0.705056
0.704466
-0.173308
-0.169950
-0.168024
-0.166602
-0.164600
-0.161330
-0.156379
-0.149403
-0.138071
-0.118490
-0.091011
-0.058878
-0.029616
-0.001671
0.034548
0.076050
0.117928
0.159945
0.202079
0.244304
0.286606
0.328979
0.371411
0.413890
0.456406
0.498955
0.541562
0.584168
0.625195
0.655317
0.666366
0.666011
0.664152
0.662619
0.661320
0.660721
-0.216876
-0.213649
-0.211764
-0.210326
-0.208267
-0.204861
-0.199609
-0.191396
-0.176080
-0.150986
-0.119208
-0.084393
-0.048582
-0.012430
0.026448
0.068348
0.110853
0.153402
0.195994
0.238624
0.281284
0.323968
0.366674
0.409399
0.452142
0.494905
0.537682
0.579399
0.611683
0.624793
0.624653
0.622320
0.620444
0.618898
0.617584
0.616975
-0.260464
-0.257358
-0.255509
-0.254052
-0.251930
-0.248356
-0.242497
-0.231045
-0.208944
-0.176850
-0.139762
-0.100292
-0.059424
-0.018514
0.022521
0.064728
0.107529
0.150325
0.193129
0.235943
0.278764
0.321591
0.364424
0.407263
0.450106
0.492956
0.534902
0.568491
0.583597
0.583976
0.581000
0.578634
0.576736
0.575177
0.573848
0.573229
-0.304071
-0.301077
-0.299259
-0.297781
-0.295576
-0.291482
-0.281320
-0.259209
-0.225902
-0.187031
-0.145977
-0.103934
-0.061415
-0.018936
0.023200
0.065556
0.108278
0.151009
0.193760
0.236527
0.279305
0.322094
0.364892
0.407700
0.450532
0.492298
0.525792
0.541996
0.543549
0.540370
0.537350
0.534949
0.533028
0.531456
0.530112
0.529484
-0.347697
-0.344806
-0.343013
-0.341408
-0.336456
-0.322071
-0.296564
-0.261820
-0.221817
-0.180772
-0.139376
-0.097752
-0.056020
-0.013737
0.028656
0.070778
0.113084
0.155467
0.197915
0.240413
0.282951
0.325525
0.368137
0.410779
0.451967
0.484107
0.499666
0.502222
0.499972
0.496754
0.493703
0.491264
0.489321
0.487734
0.486376
0.485738
-0.391197
-0.388421
-0.383541
-0.371281
-0.350640
-0.320730
-0.284022
-0.245907
-0.207016
-0.167390
-0.127151
-0.086423
-0.045389
-0.003646
0.038202
0.079650
0.121298
0.163117
0.205069
0.247119
0.289261
0.331491
0.373797
0.413896
0.443662
0.457077
0.459508
0.458615
0.456351
0.453138
0.450056
0.447580
0.445613
0.444013
0.442640
0.441992
-0.398730
-0.397768
-0.387163
-0.363914
-0.332053
-0.297640
-0.262057
-0.225627
-0.188364
-0.150310
-0.111557
-0.072354
-0.031466
0.010489
0.051390
0.091901
0.132724
0.173802
0.215090
0.256542
0.298134
0.340079
0.378475
0.404540
0.414843
0.416198
0.415834
0.414934
0.412725
0.409521
0.406412
0.403896
0.401905
0.400291
0.398905
0.398247
-0.363230
-0.364079
-0.352540
-0.331210
-0.303245
-0.271440
-0.237604
-0.202532
-0.166603
-0.130005
-0.092758
-0.054633
-0.013483
0.028107
0.067534
0.107050
0.146966
0.187219
0.227752
0.268659
0.309805
0.345270
0.366548
0.373131
0.373001
0.372483
0.372103
0.371249
0.369096
0.365903
0.362767
0.360213
0.358196
0.356570
0.355170
0.354501
-0.320300
-0.321209
-0.312407
-0.295257
-0.271447
-0.242823
-0.211079
-0.177395
-0.142578
-0.107078
-0.071739
-0.033387
0.008536
0.048342
0.086230
0.124669
0.163587
0.202948
0.242667
0.281909
0.313281
0.328899
0.331610
0.330183
0.329267
0.328746
0.328368
0.327560
0.325462
0.322283
0.319124
0.316530
0.314488
0.312848
0.311435
0.310756
-0.277040
-0.277933
-0.270829
-0.256737
-0.236566
-0.211314
-0.182301
-0.150607
-0.117012
-0.082187
-0.047545
-0.008422
0.032848
0.070329
0.107258
0.144699
0.182592
0.220929
0.256777
0.281961
0.291301
0.290510
0.288028
0.286459
0.285530
0.285005
0.284630
0.283867
0.281832
0.278669
0.275480
0.272847
0.270779
0.269126
0.267700
0.267011
-0.233627
-0.234489
-0.228490
-0.216519
-0.199215
-0.176980
-0.150805
-0.121829
-0.090807
-0.057288
-0.019794
0.019838
0.057466
0.093453
0.129786
0.166487
0.203824
0.234434
0.251262
0.254659
0.250675
0.246863
0.244331
0.242732
0.241790
0.241261
0.240889
0.240167
0.238209
0.235066
0.231837
0.229165
0.227070
0.225403
0.223965
0.223267
-0.190142
-0.190962
-0.185752
-0.175279
-0.160208
-0.140585
-0.116840
-0.090190
-0.061635
-0.027998
0.011149
0.048042
0.082256
0.117517
0.153249
0.187403
0.212076
0.220793
0.217898
0.212138
0.207164
0.203233
0.200634
0.199003
0.198049
0.197516
0.197145
0.196460
0.194582
0.191467
0.188195
0.185484
0.183362
0.181680
0.180231
0.179522
-0.146617
-0.147385
-0.142800
-0.133441
-0.120035
-0.102695
-0.081171
-0.056339
-0.027256
0.007700
0.043499
0.076389
0.109092
0.143532
0.171724
0.187169
0.188952
0.181701
0.174525
0.168728
0.163654
0.159608
0.156936
0.155274
0.154306
0.153769
0.153400
0.152746
0.150949
0.147868
0.144554
0.141803
0.139653
0.137957
0.136496
0.135778
-0.103067
-0.103772
-0.099713
-0.091260
-0.079017
-0.063600
-0.043875
-0.019005
0.010935
0.043277
0.074696
0.105813
0.134418
0.154102
0.160378
0.155754
0.147259
0.138674
0.131248
0.125323
0.120154
0.115989
0.113241
0.111544
0.110564
0.110023
0.109655
0.109026
0.107312
0.104272
0.100915
0.098123
0.095944
0.094234
0.092762
0.092034
-0.059534
-0.060175
-0.056532
-0.048880
-0.037404
-0.022252
-0.002593
0.021466
0.048243
0.076702
0.105545
0.125343
0.132619
0.129778
0.121061
0.112874
0.104419
0.095674
0.087994
0.081923
0.076652
0.072339
0.069491
0.067755
0.066760
0.066214
0.065845
0.065236
0.063608
0.060629
0.057245
0.054422
0.052219
0.050500
0.049021
0.048286
-0.014657
-0.015224
-0.011856
-0.004760
0.006134
0.020793
0.039350
0.060593
0.083758
0.102827
0.112717
0.110249
0.098498
0.087286
0.078143
0.069995
0.061607
0.052729
0.044766
0.038525
0.033477
0.029535
0.026868
0.025199
0.024229
0.023698
0.023343
0.022769
0.021192
0.018105
0.014513
0.011540
0.009186
0.007320
0.005689
0.004867
0.030341
0.029844
0.032937
0.039563
0.049804
0.062991
0.079130
0.093864
0.101157
0.097100
0.083912
0.069725
0.056575
0.044751
0.035306
0.027350
0.019178
0.010276
0.002235
-0.004012
-0.008738
-0.012221
-0.014684
-0.016329
-0.017348
-0.017951
-0.018388
-0.019058
-0.020790
-0.024132
-0.028042
-0.031283
-0.033820
-0.035839
-0.037625
-0.038530
0.074062
0.073612
0.076405
0.082480
0.091955
0.097544
0.097954
0.093577
0.080179
0.061501
0.043063
0.027626
0.013779
0.001685
-0.007695
-0.015358
-0.023306
-0.032113
-0.040194
-0.046541
-0.051320
-0.054855
-0.057386
-0.059110
-0.060217
-0.060912
-0.061440
-0.062226
-0.064083
-0.067487
-0.071504
-0.074899
-0.077506
-0.079546
-0.081336
-0.082241
0.104312
0.103516
0.102154
0.100936
0.099940
0.091654
0.076592
0.058879
0.038675
0.018725
0.000082
-0.015524
-0.029263
-0.041254
-0.050714
-0.058403
-0.066256
-0.074917
-0.083177
-0.089884
-0.094870
-0.098511
-0.101102
-0.102857
-0.103976
-0.104674
-0.105200
-0.105973
-0.107762
-0.111079
-0.115076
-0.118522
-0.121189
-0.123252
-0.125047
-0.115023
</DataArray>
<DataArray NumberOfComponents="1" format="ascii" type ="Float32" Name="u">
-0.000197
-0.000072
0.000009
0.000006
-0.000128
-0.000425
-0.000901
-0.001524
-0.002432
-0.003693
-0.005275
-0.007217
-0.010152
-0.011972
-0.011337
-0.010380
-0.009837
-0.009705
-0.009823
-0.010036
-0.010193
-0.010162
-0.009875
-0.009354
-0.008679
-0.007946
-0.007225
-0.006563
-0.005980
-0.005484
-0.005077
-0.004759
-0.004529
-0.004386
-0.004323
-0.004323
0.000270
0.000717
0.001105
0.001406
0.001581
0.001600
0.001443
0.001104
0.000560
-0.000174
-0.000973
-0.001693
-0.003500
-0.005815
-0.005003
-0.004290
-0.004160
-0.004387
-0.004777
-0.005239
-0.005700
-0.006072
-0.006271
-0.006253
-0.006035
-0.005673
-0.005234
-0.004775
-0.004337
-0.003942
-0.003604
-0.003331
-0.003129
-0.003002
-0.002950
-0.002950
0.000748
0.001466
0.002112
0.002659
0.003073
0.003324
0.003390
0.003263
0.002957
0.002532
0.002109
0.001828
0.001471
0.000494
0.001588
0.002040
0.001760
0.001147
0.000439
-0.000289
-0.001006
-0.001675
-0.002239
-0.002645
-0.002866
-0.002911
-0.002819
-0.002638
-0.002412
-0.002173
-0.001947
-0.001749
-0.001593
-0.001489
-0.001441
-0.001441
0.001259
0.002208
0.003072
0.003823
0.004428
0.004860
0.005100
0.005145
0.005028
0.004834
0.004719
0.004876
0.005398
0.006399
0.007843
0.008126
0.007559
0.006648
0.005651
0.004656
0.003689
0.002767
0.001918
0.001183
0.000598
0.000178
-0.000083
-0.000210
-0.000238
-0.000199
-0.000122
-0.000030
0.000059
0.000127
0.000164
0.000164
0.001807
0.002951
0.003997
0.004916
0.005678
0.006261
0.006650
0.006854
0.006921
0.006970
0.007213
0.007958
0.009502
0.011868
0.013563
0.013703
0.012938
0.011830
0.010621
0.009400
0.008205
0.007054
0.005968
0.004973
0.004100
0.003372
0.002801
0.002381
0.002094
0.001916
0.001822
0.001788
0.001791
0.001811
0.001829
0.001829
0.002371
0.003674
0.004867
0.005923
0.006816
0.007530
0.008057
0.008419
0.008683
0.009005
0.009668
0.011104
0.013745
0.017222
0.018915
0.018789
0.017809
0.016529
0.015149
0.013745
0.012356
0.011007
0.009719
0.008516
0.007420
0.006455
0.005635
0.004969
0.004451
0.004069
0.003805
0.003638
0.003548
0.003512
0.003507
0.003507
0.002911
0.004336
0.005644
0.006811
0.007817
0.008651
0.009316
0.009846
0.010333
0.010973
0.012125
0.014333
0.018055
0.022531
0.023948
0.023409
0.022152
0.020669
0.019112
0.017538
0.015981
0.014467
0.013017
0.011651
0.010389
0.009250
0.008248
0.007396
0.006695
0.006144
0.005731
0.005444
0.005264
0.005172
0.005142
0.005142
0.003373
0.004889
0.006286
0.007545
0.008654
0.009608
0.010422
0.011146
0.011901
0.012932
0.014682
0.017762
0.022411
0.027767
0.028544
0.027478
0.025891
0.024166
0.022411
0.020667
0.018961
0.017314
0.015743
0.014263
0.012890
0.011638
0.010517
0.009540
0.008713
0.008038
0.007512
0.007128
0.006874
0.006733
0.006681
0.006681
0.003703
0.005286
0.006755
0.008099
0.009313
0.010400
0.011389
0.012349
0.013437
0.014969
0.017491
0.021660
0.027332
0.032561
0.032392
0.030794
0.028874
0.026899
0.024946
0.023047
0.021220
0.019480
0.017837
0.016298
0.014871
0.013563
0.012382
0.011337
0.010435
0.009683
0.009081
0.008630
0.008321
0.008144
0.008074
0.008074
0.003857
0.005496
0.007034
0.008467
0.009798
0.011044
0.012245
0.013499
0.015013
0.017191
0.020689
0.026078
0.033073
0.036359
0.035217
0.033169
0.030956
0.028761
0.026645
0.024633
0.022737
0.020961
0.019304
0.017765
0.016341
0.015033
0.013843
0.012778
0.011845
0.011054
0.010410
0.009918
0.009575
0.009373
0.009292
0.009292
0.003806
0.005505
0.007120
0.008659
0.010133
0.011572
0.013036
0.014659
0.016718
0.019734
0.024487
0.031312
0.038135
0.038887
0.036957
0.034532
0.032076
0.029719
0.027506
0.025452
0.023559
0.021817
0.020214
0.018737
0.017373
0.016114
0.014958
0.013908
0.012974
0.012169
0.011506
0.010991
0.010628
0.010412
0.010323
0.010323
0.003540
0.005316
0.007031
0.008702
0.010353
0.012027
0.013815
0.015898
0.018644
0.022727
0.028981
0.037070
0.041137
0.040062
0.037571
0.034872
0.032263
0.029834
0.027617
0.025610
0.023801
0.022167
0.020684
0.019327
0.018074
0.016908
0.015820
0.014811
0.013891
0.013082
0.012405
0.011876
0.011500
0.011274
0.011181
0.011181
0.003062
0.004943
0.006789
0.008626
0.010492
0.012456
0.014639
0.017290
0.020880
0.026203
0.034147
0.041292
0.042137
0.039946
0.037112
0.034293
0.031663
0.029278
0.027155
0.025279
0.023623
0.022157
0.020845
0.019657
0.018561
0.017530
0.016542
0.015592
0.014689
0.013869
0.013171
0.012623
0.012233
0.011997
0.011899
0.011899
0.002380
0.004404
0.006418
0.008458
0.010584
0.012895
0.015563
0.018911
0.023503
0.030516
0.038721
0.042614
0.041449
0.038726
0.035820
0.033068
0.030552
0.028308
0.026346
0.024650
0.023186
0.021918
0.020809
0.019823
0.018922
0.018068
0.017223
0.016360
0.015477
0.014622
0.013881
0.013299
0.012887
0.012639
0.012534
0.012534
0.001498
0.003710
0.005932
0.008214
0.010641
0.013368
0.016628
0.020847
0.026858
0.034733
0.040663
0.041584
0.039524
0.036772
0.034073
0.031566
0.029258
0.027191
0.025405
0.023893
0.022619
0.021548
0.020642
0.019868
0.019186
0.018553
0.017912
0.017197
0.016357
0.015430
0.014609
0.013977
0.013538
0.013276
0.013165
0.013165
0.000399
0.002850
0.005332
0.007896
0.010647
0.013873
0.017998
0.023225
0.030147
0.036781
0.039924
0.039292
0.037036
0.034562
0.032261
0.030123
0.028054
0.026135
0.024490
0.023129
0.022017
0.021113
0.020382
0.019794
0.019320
0.018924
0.018545
0.018085
0.017389
0.016332
0.015404
0.014725
0.014272
0.014008
0.013897
0.013897
-0.000955
0.001808
0.004620
0.007559
0.010783
0.014623
0.019488
0.025408
0.031806
0.036500
0.037839
0.036628
0.034498
0.032401
0.030575
0.028904
0.027093
0.025243
0.023691
0.022456
0.021478
0.020703
0.020093
0.019624
0.019280
0.019048
0.018902
0.018768
0.018465
0.017207
0.016235
0.015591
0.015189
0.014965
0.014870
0.014870
-0.002331
0.000733
0.003904
0.007318
0.011169
0.015606
0.020686
0.026528
0.031855
0.034992
0.035369
0.034106
0.032102
0.030295
0.028896
0.027755
0.026326
0.024470
0.023054
0.021991
0.021165
0.020503
0.019961
0.019518