<VTKFile type="StructuredGrid" version="0.1" byte_order="LittleEndian">
<StructuredGrid WholeExtent="1 71 1 81 0 0">
<Piece Extent="1 36 41 61 0 0">
<PointData></PointData>
<CellData></CellData>
<Points>
<DataArray NumberOfComponents="3" format="ascii" type ="Float32" Name="mesh">
0.000000 1.750000 0.0
0.042857 1.750000 0.0
0.085714 1.750000 0.0
0.128571 1.750000 0.0
0.171429 1.750000 0.0
0.214286 1.750000 0.0
0.257143 1.750000 0.0
0.300000 1.750000 0.0
0.342857 1.750000 0.0
0.385714 1.750000 0.0
0.428571 1.750000 0.0
0.471429 1.750000 0.0
0.514286 1.750000 0.0
0.557143 1.750000 0.0
0.600000 1.750000 0.0
0.642857 1.750000 0.0
0.685714 1.750000 0.0
0.728571 1.750000 0.0
0.771429 1.750000 0.0
0.814286 1.750000 0.0
0.857143 1.750000 0.0
0.900000 1.750000 0.0
0.942857 1.750000 0.0
0.985714 1.750000 0.0
1.028571 1.750000 0.0
1.071429 1.750000 0.0
1.114286 1.750000 0.0
1.157143 1.750000 0.0
1.200000 1.750000 0.0
1.242857 1.750000 0.0
1.285714 1.750000 0.0
1.328571 1.750000 0.0
1.371429 1.750000 0.0
1.414286 1.750000 0.0
1.457143 1.750000 0.0
1.500000 1.750000 0.0
0.000000 1.793750 0.0
0.042857 1.793750 0.0
0.085714 1.793750 0.0
0.128571 1.793750 0.0
0.171429 1.793750 0.0
0.214286 1.793750 0.0
0.257143 1.793750 0.0
0.300000 1.793750 0.0
0.342857 1.793750 0.0
0.385714 1.793750 0.0
0.428571 1.793750 0.0
0.471429 1.793750 0.0
0.514286 1.793750 0.0
0.557143 1.793750 0.0
0.600000 1.793750 0.0
0.642857 1.793750 0.0
0.685714 1.793750 0.0
0.728571 1.793750 0.0
0.771429 1.793750 0.0
0.814286 1.793750 0.0
0.857143 1.793750 0.0
0.900000 1.793750 0.0
0.942857 1.793750 0.0
0.985714 1.793750 0.0
1.028571 1.793750 0.0
1.071429 1.793750 0.0
1.114286 1.793750 0.0
1.157143 1.793750 0.0
1.200000 1.793750 0.0
1.242857 1.793750 0.0
1.285714 1.793750 0.0
1.328571 1.793750 0.0
1.371429 1.793750 0.0
1.414286 1.793750 0.0
1.457143 1.793750 0.0
1.500000 1.793750 0.0
0.000000 1.837500 0.0
0.042857 1.837500 0.0
0.085714 1.837500 0.0
0.128571 1.837500 0.0
0.171429 1.837500 0.0
0.214286 1.837500 0.0
0.257143 1.837500 0.0
0.300000 1.837500 0.0
0.342857 1.837500 0.0
0.385714 1.837500 0.0
0.428571 1.837500 0.0
0.471429 1.837500 0.0
0.514286 1.837500 0.0
0.557143 1.837500 0.0
0.600000 1.837500 0.0
0.642857 1.837500 0.0
0.685714 1.837500 0.0
0.728571 1.837500 0.0
0.771429 1.837500 0.0
0.814286 1.837500 0.0
0.857143 1.837500 0.0
0.900000 1.837500 0.0
0.942857 1.837500 0.0
0.985714 1.837500 0.0
1.028571 1.837500 0.0
1.071429 1.837500 0.0
1.114286 1.837500 0.0
1.157143 1.837500 0.0
1.200000 1.837500 0.0
1.242857 1.837500 0.0
1.285714 1.837500 0.0
1.328571 1.837500 0.0
1.371429 1.837500 0.0
1.414286 1.837500 0.0
1.457143 1.837500 0.0
1.500000 1.837500 0.0
0.000000 1.881250 0.0
0.042857 1.881250 0.0
0.085714 1.881250 0.0
0.128571 1.881250 0.0
0.171429 1.881250 0.0
0.214286 1.881250 0.0
0.257143 1.881250 0.0
0.300000 1.881250 0.0
0.342857 1.881250 0.0
0.385714 1.881250 0.0
0.428571 1.881250 0.0
0.471429 1.881250 0.0
0.514286 1.881250 0.0
0.557143 1.881250 0.0
0.600000 1.881250 0.0
0.642857 1.881250 0.0
0.685714 1.881250 0.0
0.728571 1.881250 0.0
0.771429 1.881250 0.0
0.814286 1.881250 0.0
0.857143 1.881250 0.0
0.900000 1.881250 0.0
0.942857 1.881250 0.0
0.985714 1.881250 0.0
1.028571 1.881250 0.0
1.071429 1.881250 0.0
1.114286 1.881250 0.0
1.157143 1.881250 0.0
1.200000 1.881250 0.0
1.242857 1.881250 0.0
1.285714 1.881250 0.0
1.328571 1.881250 0.0
1.371429 1.881250 0.0
1.414286 1.881250 0.0
1.457143 1.881250 0.0
1.500000 1.881250 0.0
0.000000 1.925000 0.0
0.042857 1.925000 0.0
0.085714 1.925000 0.0
0.128571 1.925000 0.0
0.171429 1.925000 0.0
0.214286 1.925000 0.0
0.257143 1.925000 0.0
0.300000 1.925000 0.0
0.342857 1.925000 0.0
0.385714 1.925000 0.0
0.428571 1.925000 0.0
0.471429 1.925000 0.0
0.514286 1.925000 0.0
0.557143 1.925000 0.0
0.600000 1.925000 0.0
0.642857 1.925000 0.0
0.685714 1.925000 0.0
0.728571 1.925000 0.0
0.771429 1.925000 0.0
0.814286 1.925000 0.0
0.857143 1.925000 0.0
0.900000 1.925000 0.0
0.942857 1.925000 0.0
0.985714 1.925000 0.0
1.028571 1.925000 0.0
1.071429 1.925000 0.0
1.114286 1.925000 0.0
1.157143 1.925000 0.0
1.200000 1.925000 0.0
1.242857 1.925000 0.0
1.285714 1.925000 0.0
1.328571 1.925000 0.0
1.371429 1.925000 0.0
1.414286 1.925000 0.0
1.457143 1.925000 0.0
1.500000 1.925000 0.0
0.000000 1.968750 0.0
0.042857 1.968750 0.0
0.085714 1.968750 0.0
0.128571 1.968750 0.0
0.171429 1.968750 0.0
0.214286 1.968750 0.0
0.257143 1.968750 0.0
0.300000 1.968750 0.0
0.342857 1.968750 0.0
0.385714 1.968750 0.0
0.428571 1.968750 0.0
0.471429 1.968750 0.0
0.514286 1.968750 0.0
0.557143 1.968750 0.0
0.600000 1.968750 0.0
0.642857 1.968750 0.0
0.685714 1.968750 0.0
0.728571 1.968750 0.0
0.771429 1.968750 0.0
0.814286 1.968750 0.0
0.857143 1.968750 0.0
0.900000 1.968750 0.0
0.942857 1.968750 0.0
0.985714 1.968750 0.0
1.028571 1.968750 0.0
1.071429 1.968750 0.0
1.114286 1.968750 0.0
1.157143 1.968750 0.0
1.200000 1.968750 0.0
1.242857 1.968750 0.0
1.285714 1.968750 0.0
1.328571 1.968750 0.0
1.371429 1.968750 0.0
1.414286 1.968750 0.0
1.457143 1.968750 0.0
1.500000 1.968750 0.0
0.000000 2.012500 0.0
0.042857 2.012500 0.0
0.085714 2.012500 0.0
0.128571 2.012500 0.0
0.171429 2.012500 0.0
0.214286 2.012500 0.0
0.257143 2.012500 0.0
0.300000 2.012500 0.0
0.342857 2.012500 0.0
0.385714 2.012500 0.0
0.428571 2.012500 0.0
0.471429 2.012500 0.0
0.514286 2.012500 0.0
0.557143 2.012500 0.0
0.600000 2.012500 0.0
0.642857 2.012500 0.0
0.685714 2.012500 0.0
0.728571 2.012500 0.0
0.771429 2.012500 0.0
0.814286 2.012500 0.0
0.857143 2.012500 0.0
0.900000 2.012500 0.0
0.942857 2.012500 0.0
0.985714 2.012500 0.0
1.028571 2.012500 0.0
1.071429 2.012500 0.0
1.114286 2.012500 0.0
1.157143 2.012500 0.0
1.200000 2.012500 0.0
1.242857 2.012500 0.0
1.285714 2.012500 0.0
1.328571 2.012500 0.0
1.371429 2.012500 0.0
1.414286 2.012500 0.0
1.457143 2.012500 0.0
1.500000 2.012500 0.0
0.000000 2.056250 0.0
0.042857 2.056250 0.0
0.085714 2.056250 0.0
0.128571 2.056250 0.0
0.171429 2.056250 0.0
0.214286 2.056250 0.0
0.257143 2.056250 0.0
0.300000 2.056250 0.0
0.342857 2.056250 0.0
0.385714 2.056250 0.0
0.428571 2.056250 0.0
0.471429 2.056250 0.0
0.514286 2.056250 0.0
0.557143 2.056250 0.0
0.600000 2.056250 0.0
0.642857 2.056250 0.0
0.685714 2.056250 0.0
0.728571 2.056250 0.0
0.771429 2.056250 0.0
0.814286 2.056250 0.0
0.857143 2.056250 0.0
0.900000 2.056250 0.0
0.942857 2.056250 0.0
0.985714 2.056250 0.0
1.028571 2.056250 0.0
1.071429 2.056250 0.0
1.114286 2.056250 0.0
1.157143 2.056250 0.0
1.200000 2.056250 0.0
1.242857 2.056250 0.0
1.285714 2.056250 0.0
1.328571 2.056250 0.0
1.371429 2.056250 0.0
1.414286 2.056250 0.0
1.457143 2.056250 0.0
1.500000 2.056250 0.0
0.000000 2.100000 0.0
0.042857 2.100000 0.0
0.085714 2.100000 0.0
0.128571 2.100000 0.0
0.171429 2.100000 0.0
0.214286 2.100000 0.0
0.257143 2.100000 0.0
0.300000 2.100000 0.0
0.342857 2.100000 0.0
0.385714 2.100000 0.0
0.428571 2.100000 0.0
0.471429 2.100000 0.0
0.514286 2.100000 0.0
0.557143 2.100000 0.0
0.600000 2.100000 0.0
0.642857 2.100000 0.0
0.685714 2.100000 0.0
0.728571 2.100000 0.0
0.771429 2.100000 0.0
0.814286 2.100000 0.0
0.857143 2.100000 0.0
0.900000 2.100000 0.0
0.942857 2.100000 0.0
0.985714 2.100000 0.0
1.028571 2.100000 0.0
1.071429 2.100000 0.0
1.114286 2.100000 0.0
1.157143 2.100000 0.0
1.200000 2.100000 0.0
1.242857 2.100000 0.0
1.285714 2.100000 0.0
1.328571 2.100000 0.0
1.371429 2.100000 0.0
1.414286 2.100000 0.0
1.457143 2.100000 0.0
1.500000 2.100000 0.0
0.000000 2.143750 0.0
0.042857 2.143750 0.0
0.085714 2.143750 0.0
0.128571 2.143750 0.0
0.171429 2.143750 0.0
0.214286 2.143750 0.0
0.257143 2.143750 0.0
0.300000 2.143750 0.0
0.342857 2.143750 0.0
0.385714 2.143750 0.0
0.428571 2.143750 0.0
0.471429 2.143750 0.0
0.514286 2.143750 0.0
0.557143 2.143750 0.0
0.600000 2.143750 0.0
0.642857 2.143750 0.0
0.685714 2.143750 0.0
0.728571 2.143750 0.0
0.771429 2.143750 0.0
0.814286 2.143750 0.0
0.857143 2.143750 0.0
0.900000 2.143750 0.0
0.942857 2.143750 0.0
0.985714 2.143750 0.0
1.028571 2.143750 0.0
1.071429 2.143750 0.0
1.114286 2.143750 0.0
1.157143 2.143750 0.0
1.200000 2.143750 0.0
1.242857 2.143750 0.0
1.285714 2.143750 0.0
1.328571 2.143750 0.0
1.371429 2.143750 0.0
1.414286 2.143750 0.0
1.457143 2.143750 0.0
1.500000 2.143750 0.0
0.000000 2.187500 0.0
0.042857 2.187500 0.0
0.085714 2.187500 0.0
0.128571 2.187500 0.0
0.171429 2.187500 0.0
0.214286 2.187500 0.0
0.257143 2.187500 0.0
0.300000 2.187500 0.0
0.342857 2.187500 0.0
0.385714 2.187500 0.0
0.428571 2.187500 0.0
0.471429 2.187500 0.0
0.514286 2.187500 0.0
0.557143 2.187500 0.0
0.600000 2.187500 0.0
0.642857 2.187500 0.0
0.685714 2.187500 0.0
0.728571 2.187500 0.0
0.771429 2.187500 0.0
0.814286 2.187500 0.0
0.857143 2.187500 0.0
0.900000 2.187500 0.0
0.942857 2.187500 0.0
0.985714 2.187500 0.0
1.028571 2.187500 0.0
1.071429 2.187500 0.0
1.114286 2.187500 0.0
1.157143 2.187500 0.0
1.200000 2.187500 0.0
1.242857 2.187500 0.0
1.285714 2.187500 0.0
1.328571 2.187500 0.0
1.371429 2.187500 0.0
1.414286 2.187500 0.0
1.457143 2.187500 0.0
1.500000 2.187500 0.0
0.000000 2.231250 0.0
0.042857 2.231250 0.0
0.085714 2.231250 0.0
0.128571 2.231250 0.0
0.171429 2.231250 0.0
0.214286 2.231250 0.0
0.257143 2.231250 0.0
0.300000 2.231250 0.0
0.342857 2.231250 0.0
0.385714 2.231250 0.0
0.428571 2.231250 0.0
0.471429 2.231250 0.0
0.514286 2.231250 0.0
0.557143 2.231250 0.0
0.600000 2.231250 0.0
0.642857 2.231250 0.0
0.685714 2.231250 0.0
0.728571 2.231250 0.0
0.771429 2.231250 0.0
0.814286 2.231250 0.0
0.857143 2.231250 0.0
0.900000 2.231250 0.0
0.942857 2.231250 0.0
0.985714 2.231250 0.0
1.028571 2.231250 0.0
1.071429 2.231250 0.0
1.114286 2.231250 0.0
1.157143 2.231250 0.0
1.200000 2.231250 0.0
1.242857 2.231250 0.0
1.285714 2.231250 0.0
1.328571 2.231250 0.0
1.371429 2.231250 0.0
1.414286 2.231250 0.0
1.457143 2.231250 0.0
1.500000 2.231250 0.0
0.000000 2.275000 0.0
0.042857 2.275000 0.0
0.085714 2.275000 0.0
0.128571 2.275000 0.0
0.171429 2.275000 0.0
0.214286 2.275000 0.0
0.257143 2.275000 0.0
0.300000 2.275000 0.0
0.342857 2.275000 0.0
0.385714 2.275000 0.0
0.428571 2.275000 0.0
0.471429 2.275000 0.0
0.514286 2.275000 0.0
0.557143 2.275000 0.0
0.600000 2.275000 0.0
0.642857 2.275000 0.0
0.685714 2.275000 0.0
0.728571 2.275000 0.0
0.771429 2.275000 0.0
0.814286 2.275000 0.0
0.857143 2.275000 0.0
0.900000 2.275000 0.0
0.942857 2.275000 0.0
0.985714 2.275000 0.0
1.028571 2.275000 0.0
1.071429 2.275000 0.0
1.114286 2.275000 0.0
1.157143 2.275000 0.0
1.200000 2.275000 0.0
1.242857 2.275000 0.0
1.285714 2.275000 0.0
1.328571 2.275000 0.0
1.371429 2.275000 0.0
1.414286 2.275000 0.0
1.457143 2.275000 0.0
1.500000 2.275000 0.0
0.000000 2.318750 0.0
0.042857 2.318750 0.0
0.085714 2.318750 0.0
0.128571 2.318750 0.0
0.171429 2.318750 0.0
0.214286 2.318750 0.0
0.257143 2.318750 0.0
0.300000 2.318750 0.0
0.342857 2.318750 0.0
0.385714 2.318750 0.0
0.428571 2.318750 0.0
0.471429 2.318750 0.0
0.514286 2.318750 0.0
0.557143 2.318750 0.0
0.600000 2.318750 0.0
0.642857 2.318750 0.0
0.685714 2.318750 0.0
0.728571 2.318750 0.0
0.771429 2.318750 0.0
0.814286 2.318750 0.0
0.857143 2.318750 0.0
0.900000 2.318750 0.0
0.942857 2.318750 0.0
0.985714 2.318750 0.0
1.028571 2.318750 0.0
1.071429 2.318750 0.0
1.114286 2.318750 0.0
1.157143 2.318750 0.0
1.200000 2.318750 0.0
1.242857 2.318750 0.0
1.285714 2.318750 0.0
1.328571 2.318750 0.0
1.371429 2.318750 0.0
1.414286 2.318750 0.0
1.457143 2.318750 0.0
1.500000 2.318750 0.0
0.000000 2.362500 0.0
0.042857 2.362500 0.0
0.085714 2.362500 0.0
0.128571 2.362500 0.0
0.171429 2.362500 0.0
0.214286 2.362500 0.0
0.257143 2.362500 0.0
0.300000 2.362500 0.0
0.342857 2.362500 0.0
0.385714 2.362500 0.0
0.428571 2.362500 0.0
0.471429 2.362500 0.0
0.514286 2.362500 0.0
0.557143 2.362500 0.0
0.600000 2.362500 0.0
0.642857 2.362500 0.0
0.685714 2.362500 0.0
0.728571 2.362500 0.0
0.771429 2.362500 0.0
0.814286 2.362500 0.0
0.857143 2.362500 0.0
0.900000 2.362500 0.0
0.942857 2.362500 0.0
0.985714 2.362500 0.0
1.028571 2.362500 0.0
1.071429 2.362500 0.0
1.114286 2.362500 0.0
1.157143 2.362500 0.0
1.200000 2.362500 0.0
1.242857 2.362500 0.0
1.285714 2.362500 0.0
1.328571 2.362500 0.0
1.371429 2.362500 0.0
1.414286 2.362500 0.0
1.457143 2.362500 0.0
1.500000 2.362500 0.0
0.000000 2.406250 0.0
0.042857 2.406250 0.0
0.085714 2.406250 0.0
0.128571 2.406250 0.0
0.171429 2.406250 0.0
0.214286 2.406250 0.0
0.257143 2.406250 0.0
0.300000 2.406250 0.0
0.342857 2.406250 0.0
0.385714 2.406250 0.0
0.428571 2.406250 0.0
0.471429 2.406250 0.0
0.514286 2.406250 0.0
0.557143 2.406250 0.0
0.600000 2.406250 0.0
0.642857 2.406250 0.0
0.685714 2.406250 0.0
0.728571 2.406250 0.0
0.771429 2.406250 0.0
0.814286 2.406250 0.0
0.857143 2.406250 0.0
0.900000 2.406250 0.0
0.942857 2.406250 0.0
0.985714 2.406250 0.0
1.028571 2.406250 0.0
1.071429 2.406250 0.0
1.114286 2.406250 0.0
1.157143 2.406250 0.0
1.200000 2.406250 0.0
1.242857 2.406250 0.0
1.285714 2.406250 0.0
1.328571 2.406250 0.0
1.371429 2.406250 0.0
1.414286 2.406250 0.0
1.457143 2.406250 0.0
1.500000 2.406250 0.0
0.000000 2.450000 0.0
0.042857 2.450000 0.0
0.085714 2.450000 0.0
0.128571 2.450000 0.0
0.171429 2.450000 0.0
0.214286 2.450000 0.0
0.257143 2.450000 0.0
0.300000 2.450000 0.0
0.342857 2.450000 0.0
0.385714 2.450000 0.0
0.428571 2.450000 0.0
0.471429 2.450000 0.0
0.514286 2.450000 0.0
0.557143 2.450000 0.0
0.600000 2.450000 0.0
0.642857 2.450000 0.0
0.685714 2.450000 0.0
0.728571 2.450000 0.0
0.771429 2.450000 0.0
0.814286 2.450000 0.0
0.857143 2.450000 0.0
0.900000 2.450000 0.0
0.942857 2.450000 0.0
0.985714 2.450000 0.0
1.028571 2.450000 0.0
1.071429 2.450000 0.0
1.114286 2.450000 0.0
1.157143 2.450000 0.0
1.200000 2.450000 0.0
1.242857 2.450000 0.0
1.285714 2.450000 0.0
1.328571 2.450000 0.0
1.371429 2.450000 0.0
1.414286 2.450000 0.0
1.457143 2.450000 0.0
1.500000 2.450000 0.0
0.000000 2.493750 0.0
0.042857 2.493750 0.0
0.085714 2.493750 0.0
0.128571 2.493750 0.0
0.171429 2.493750 0.0
0.214286 2.493750 0.0
0.257143 2.493750 0.0
0.300000 2.493750 0.0
0.342857 2.493750 0.0
0.385714 2.493750 0.0
0.428571 2.493750 0.0
0.471429 2.493750 0.0
0.514286 2.493750 0.0
0.557143 2.493750 0.0
0.600000 2.493750 0.0
0.642857 2.493750 0.0
0.685714 2.493750 0.0
0.728571 2.493750 0.0
0.771429 2.493750 0.0
0.814286 2.493750 0.0
0.857143 2.493750 0.0
0.900000 2.493750 0.0
0.942857 2.493750 0.0
0.985714 2.493750 0.0
1.028571 2.493750 0.0
1.071429 2.493750 0.0
1.114286 2.493750 0.0
1.157143 2.493750 0.0
1.200000 2.493750 0.0
1.242857 2.493750 0.0
1.285714 2.493750 0.0
1.328571 2.493750 0.0
1.371429 2.493750 0.0
1.414286 2.493750 0.0
1.457143 2.493750 0.0
1.500000 2.493750 0.0
0.000000 2.537500 0.0
0.042857 2.537500 0.0
0.085714 2.537500 0.0
0.128571 2.537500 0.0
0.171429 2.537500 0.0
0.214286 2.537500 0.0
0.257143 2.537500 0.0
0.300000 2.537500 0.0
0.342857 2.537500 0.0
0.385714 2.537500 0.0
0.428571 2.537500 0.0
0.471429 2.537500 0.0
0.514286 2.537500 0.0
0.557143 2.537500 0.0
0.600000 2.537500 0.0
0.642857 2.537500 0.0
0.685714 2.537500 0.0
0.728571 2.537500 0.0
0.771429 2.537500 0.0
0.814286 2.537500 0.0
0.857143 2.537500 0.0
0.900000 2.537500 0.0
0.942857 2.537500 0.0
0.985714 2.537500 0.0
1.028571 2.537500 0.0
1.071429 2.537500 0.0
1.114286 2.537500 0.0
1.157143 2.537500 0.0
1.200000 2.537500 0.0
1.242857 2.537500 0.0
1.285714 2.537500 0.0
1.328571 2.537500 0.0
1.371429 2.537500 0.0
1.414286 2.537500 0.0
1.457143 2.537500 0.0
1.500000 2.537500 0.0
0.000000 2.581250 0.0
0.042857 2.581250 0.0
0.085714 2.581250 0.0
0.128571 2.581250 0.0
0.171429 2.581250 0.0
0.214286 2.581250 0.0
0.257143 2.581250 0.0
0.300000 2.581250 0.0
0.342857 2.581250 0.0
0.385714 2.581250 0.0
0.428571 2.581250 0.0
0.471429 2.581250 0.0
0.514286 2.581250 0.0
0.557143 2.581250 0.0
0.600000 2.581250 0.0
0.642857 2.581250 0.0
0.685714 2.581250 0.0
0.728571 2.581250 0.0
0.771429 2.581250 0.0
0.814286 2.581250 0.0
0.857143 2.581250 0.0
0.900000 2.581250 0.0
0.942857 2.581250 0.0
0.985714 2.581250 0.0
1.028571 2.581250 0.0
1.071429 2.581250 0.0
1.114286 2.581250 0.0
1.157143 2.581250 0.0
1.200000 2.581250 0.0
1.242857 2.581250 0.0
1.285714 2.581250 0.0
1.328571 2.581250 0.0
1.371429 2.581250 0.0
1.414286 2.581250 0.0
1.457143 2.581250 0.0
1.500000 2.581250 0.0
0.000000 2.625000 0.0
0.042857 2.625000 0.0
0.085714 2.625000 0.0
0.128571 2.625000 0.0
0.171429 2.625000 0.0
0.214286 2.625000 0.0
0.257143 2.625000 0.0
0.300000 2.625000 0.0
0.342857 2.625000 0.0
0.385714 2.625000 0.0
0.428571 2.625000 0.0
0.471429 2.625000 0.0
0.514286 2.625000 0.0
0.557143 2.625000 0.0
0.600000 2.625000 0.0
0.642857 2.625000 0.0
0.685714 2.625000 0.0
0.728571 2.625000 0.0
0.771429 2.625000 0.0
0.814286 2.625000 0.0
0.857143 2.625000 0.0
0.900000 2.625000 0.0
0.942857 2.625000 0.0
0.985714 2.625000 0.0
1.028571 2.625000 0.0
1.071429 2.625000 0.0
1.114286 2.625000 0.0
1.157143 2.625000 0.0
1.200000 2.625000 0.0
1.242857 2.625000 0.0
1.285714 2.625000 0.0
1.328571 2.625000 0.0
1.371429 2.625000 0.0
1.414286 2.625000 0.0
1.457143 2.625000 0.0
1.500000 2.625000 0.0
</DataArray></Points>
<PointData>
<DataArray NumberOfComponents="1" format="ascii" type ="Float32" Name="phi">
0.738855
0.749797
0.749807
0.749819
0.749827
0.749091
0.741455
0.719084
0.682859
0.641214
0.599465
0.557789
0.516189
0.474683
0.433300
0.392058
0.350958
0.310007
0.269235
0.228695
0.188436
0.148503
0.108961
0.069886
0.031426
-0.006899
-0.044228
-0.079613
-0.113448
-0.145401
-0.174836
-0.201003
-0.223149
-0.240504
-0.252325
-0.256757
0.706043
0.706048
0.706058
0.706070
0.706082
0.706097
0.705909
0.700810
0.682883
0.650366
0.610203
0.568914
0.527728
0.486666
0.445766
0.405053
0.364535
0.324235
0.284214
0.244519
0.205197
0.166327
0.127980
0.090185
0.052919
0.016215
-0.019164
-0.052726
-0.084553
-0.114193
-0.140987
-0.164482
-0.184116
-0.199320
-0.209574
-0.213368
0.662293
0.662298
0.662309
0.662320
0.662333
0.662348
0.662366
0.662321
0.659481
0.646664
0.619434
0.581840
0.540998
0.500343
0.460042
0.419961
0.380101
0.340527
0.301357
0.262609
0.224257
0.186384
0.149120
0.112540
0.076758
0.042082
0.008647
-0.023350
-0.053380
-0.080748
-0.105107
-0.126407
-0.143993
-0.157513
-0.166581
-0.169866
0.618543
0.618548
0.618559
0.618571
0.618584
0.618600
0.618617
0.618637
0.618654
0.617726
0.609774
0.588960
0.555384
0.515719
0.476100
0.436751
0.397640
0.358812
0.320429
0.282596
0.245276
0.208487
0.172381
0.137147
0.103018
0.070155
0.038520
0.008190
-0.020222
-0.045481
-0.067762
-0.087290
-0.103107
-0.115308
-0.123438
-0.126281
0.574794
0.574799
0.574810
0.574822
0.574835
0.574851
0.574868
0.574889
0.574913
0.574941
0.574861
0.571114
0.556945
0.529775
0.493744
0.455165
0.416898
0.378926
0.341344
0.304346
0.268066
0.232520
0.197764
0.163946
0.131266
0.099920
0.070008
0.041577
0.014921
-0.008625
-0.029486
-0.047458
-0.061611
-0.072843
-0.080198
-0.082634
0.531044
0.531049
0.531060
0.531072
0.531086
0.531102
0.531119
0.531140
0.531164
0.531193
0.531226
0.531257
0.530326
0.522560
0.503821
0.474083
0.437664
0.400645
0.364037
0.327969
0.292647
0.258279
0.224934
0.192577
0.161266
0.131260
0.102855
0.076256
0.051543
0.029496
0.009830
-0.006670
-0.019490
-0.030075
-0.036889
-0.038945
0.487294
0.487299
0.487310
0.487323
0.487337
0.487352
0.487370
0.487391
0.487416
0.487444
0.487477
0.487516
0.487561
0.487569
0.485251
0.474565
0.453885
0.423738
0.388277
0.353361
0.319105
0.285746
0.253557
0.222571
0.192701
0.164072
0.137038
0.111945
0.088943
0.068338
0.050085
0.034975
0.023078
0.013233
0.006948
0.005104
0.443544
0.443549
0.443561
0.443573
0.443587
0.443603
0.443621
0.443642
0.443667
0.443695
0.443729
0.443768
0.443812
0.443864
0.443923
0.443909
0.440773
0.428871
0.408595
0.380297
0.347123
0.314875
0.283657
0.253756
0.225237
0.198062
0.172411
0.148646
0.127031
0.107708
0.090810
0.076891
0.065677
0.056597
0.050897
0.049155
0.399794
0.399799
0.399811
0.399824
0.399838
0.399854
0.399872
0.399893
0.399918
0.399946
0.399980
0.400019
0.400064
0.400116
0.400175
0.400242
0.400318
0.400337
0.397533
0.386419
0.368615
0.344557
0.315141
0.286224
0.258812
0.232952
0.208702
0.186227
0.165796
0.147622
0.131931
0.118945
0.108257
0.099727
0.094477
0.092869
0.356044
0.356050
0.356061
0.356074
0.356088
0.356104
0.356122
0.356144
0.356168
0.356197
0.356231
0.356270
0.356315
0.356367
0.356426
0.356493
0.356569
0.356655
0.356750
0.356838
0.355441
0.347254
0.333203
0.316088
0.293438
0.268686
0.245708
0.224477
0.205163
0.188051
0.173380
0.161137
0.150950
0.142943
0.138088
0.136594
0.312294
0.312300
0.312311
0.312324
0.312338
0.312354
0.312373
0.312394
0.312419
0.312448
0.312481
0.312520
0.312566
0.312617
0.312677
0.312744
0.312820
0.312906
0.313001
0.313106
0.313221
0.313346
0.313414
0.310563
0.301449
0.289409
0.277753
0.262838
0.245093
0.228901
0.215086
0.203459
0.193746
0.186226
0.181720
0.180325
0.268545
0.268550
0.268561
0.268574
0.268589
0.268605
0.268623
0.268644
0.268669
0.268698
0.268732
0.268771
0.268816
0.268868
0.268927
0.268995
0.269071
0.269157
0.269252
0.269357
0.269472
0.269596
0.269730
0.269873
0.270022
0.270175
0.269795
0.265275
0.256985
0.249162
0.242520
0.236910
0.232219
0.228408
0.225383
0.224052
0.224795
0.224800
0.224811
0.224824
0.224839
0.224855
0.224873
0.224895
0.224920
0.224949
0.224982
0.225021
0.225067
0.225119
0.225178
0.225245
0.225322
0.225407
0.225502
0.225607
0.225722
0.225847
0.225981
0.226123
0.226272
0.226426
0.226583
0.226741
0.226894
0.227040
0.227174
0.227293
0.227391
0.227261
0.226430
0.225781
0.181045
0.181050
0.181062
0.181075
0.181089
0.181105
0.181123
0.181145
0.181170
0.181199
0.181233
0.181272
0.181317
0.181369
0.181428
0.181496
0.181572
0.181657
0.181752
0.181857
0.181972
0.182097
0.182231
0.182373
0.182522
0.182676
0.182833
0.182990
0.183143
0.183289
0.183423
0.183541
0.183639
0.183712
0.183758
0.183774
0.137295
0.137300
0.137312
0.137325
0.137339
0.137355
0.137374
0.137395
0.137420
0.137449
0.137483
0.137522
0.137567
0.137619
0.137678
0.137746
0.137822
0.137908
0.138003
0.138107
0.138222
0.138347
0.138481
0.138623
0.138772
0.138926
0.139083
0.139239
0.139392
0.139538
0.139672
0.139790
0.139888
0.139961
0.140007
0.140022
0.093545
0.093550
0.093562
0.093575
0.093589
0.093605
0.093624
0.093645
0.093670
0.093699
0.093733
0.093772
0.093817
0.093869
0.093929
0.093996
0.094072
0.094158
0.094253
0.094358
0.094473
0.094597
0.094731
0.094873
0.095022
0.095176
0.095333
0.095490
0.095642
0.095788
0.095922
0.096040
0.096137
0.096211
0.096257
0.096272
0.049794
0.049800
0.049811
0.049824
0.049838
0.049855
0.049873
0.049895
0.049919
0.049948
0.049982
0.050021
0.050067
0.050119
0.050178
0.050246
0.050322
0.050407
0.050502
0.050607
0.050722
0.050847
0.050981
0.051124
0.051273
0.051427
0.051584
0.051741
0.051894
0.052040
0.052174
0.052292
0.052389
0.052463
0.052509
0.052525
0.006067
0.006072
0.006083
0.006097
0.006112
0.006129
0.006149
0.006171
0.006196
0.006226
0.006260
0.006299
0.006344
0.006396
0.006455
0.006521
0.006596
0.006679
0.006771
0.006873
0.006984
0.007103
0.007232
0.007367
0.007509
0.007655
0.007803
0.007951
0.008095
0.008231
0.008356
0.008466
0.008557
0.008625
0.008667
0.008681
-0.037660
-0.037656
-0.037645
-0.037630
-0.037614
-0.037596
-0.037576
-0.037552
-0.037526
-0.037496
-0.037462
-0.037422
-0.037377
-0.037326
-0.037268
-0.037203
-0.037130
-0.037049
-0.036960
-0.036862
-0.036755
-0.036640
-0.036518
-0.036389
-0.036255
-0.036117
-0.035978
-0.035840
-0.035706
-0.035579
-0.035463
-0.035362
-0.035278
-0.035216
-0.035177
-0.035164
-0.081410
-0.081406
-0.081395
-0.081380
-0.081364
-0.081346
-0.081326
-0.081303
-0.081276
-0.081246
-0.081212
-0.081172
-0.081127
-0.081076
-0.081018
-0.080953
-0.080880
-0.080799
-0.080709
-0.080611
-0.080505
-0.080390
-0.080268
-0.080139
-0.080005
-0.079867
-0.079728
-0.079590
-0.079455
-0.079329
-0.079213
-0.079111
-0.079028
-0.078966
-0.078927
-0.078914
-0.114222
-0.125156
-0.125145
-0.125130
-0.125114
-0.125096
-0.125075
-0.125052
-0.125026
-0.124996
-0.124962
-0.124922
-0.124877
-0.124826
-0.124768
-0.124703
-0.124630
-0.124549
-0.124459
-0.124361
-0.124255
-0.124140
-0.124018
-0.123889
-0.123755
-0.123617
-0.123478
-0.123340
-0.123205
-0.123079
-0.122963
-0.122862
-0.122778
-0.122716
-0.122678
-0.122664
</DataArray>
<DataArray NumberOfComponents="1" format="ascii" type ="Float32" Name="u">
0.000000
-0.000330
-0.000336
-0.000349
-0.000369
-0.000397
-0.000433
-0.000479
-0.000535
-0.000603
-0.000684
-0.000782
-0.000898
-0.001037
-0.001202
-0.001400
-0.001636
-0.001918
-0.002257
-0.002662
-0.003146
-0.003720
-0.004387
-0.005074
-0.005313
-0.003295
-0.000968
-0.000093
0.000165
0.000202
0.000223
0.000220
0.000202
0.000161
0.000092
0.000006
-0.000410
-0.000410
-0.000425
-0.000445
-0.000470
-0.000502
-0.000543
-0.000593
-0.000655
-0.000730
-0.000819
-0.000925
-0.001051
-0.001200
-0.001376
-0.001585
-0.001832
-0.002125
-0.002472
-0.002883
-0.003370
-0.003948
-0.004627
-0.005387
-0.006007
-0.005614
-0.002583
-0.000511
0.000020
0.000097
0.000212
0.000247
0.000257
0.000225
0.000133
0.000010
-0.000504
-0.000504
-0.000517
-0.000536
-0.000563
-0.000598
-0.000642
-0.000697
-0.000763
-0.000842
-0.000937
-0.001048
-0.001180
-0.001335
-0.001516
-0.001730
-0.001980
-0.002273
-0.002618
-0.003021
-0.003495
-0.004052
-0.004707
-0.005467
-0.006257
-0.006618
-0.004956
-0.002252
-0.000599
-0.000314
0.000157
0.000256
0.000337
0.000336
0.000205
0.000015
-0.000592
-0.000592
-0.000602
-0.000621
-0.000649
-0.000685
-0.000731
-0.000788
-0.000856
-0.000939
-0.001036
-0.001150
-0.001284
-0.001441
-0.001623
-0.001835
-0.002082
-0.002368
-0.002699
-0.003084
-0.003528
-0.004042
-0.004636
-0.005314
-0.006046
-0.006639
-0.006455
-0.004967
-0.002657
-0.001357
-0.000036
0.000087
0.000406
0.000487
0.000290
0.000017
-0.000669
-0.000669
-0.000678
-0.000697
-0.000725
-0.000762
-0.000809
-0.000866
-0.000936
-0.001019
-0.001117
-0.001231
-0.001365
-0.001519
-0.001698
-0.001904
-0.002141
-0.002413
-0.002724
-0.003080
-0.003485
-0.003944
-0.004460
-0.005033
-0.005651
-0.006248
-0.006612
-0.006450
-0.005176
-0.003141
-0.001560
-0.000766
0.000348
0.000455
0.000224
-0.000005
-0.000736
-0.000736
-0.000745
-0.000764
-0.000791
-0.000828
-0.000875
-0.000933
-0.001002
-0.001084
-0.001181
-0.001293
-0.001423
-0.001572
-0.001744
-0.001940
-0.002163
-0.002416
-0.002701
-0.003023
-0.003382
-0.003781
-0.004218
-0.004690
-0.005187
-0.005686
-0.006116
-0.006340
-0.006035
-0.004730
-0.003867
-0.002349
-0.001021
-0.000543
-0.000298
-0.000033
-0.000793
-0.000793
-0.000802
-0.000820
-0.000847
-0.000884
-0.000930
-0.000986
-0.001054
-0.001134
-0.001228
-0.001336
-0.001460
-0.001602
-0.001764
-0.001946
-0.002152
-0.002383
-0.002640
-0.002925
-0.003237
-0.003576
-0.003938
-0.004318
-0.004704
-0.005081
-0.005412
-0.005629
-0.005578
-0.005109
-0.004737
-0.003615
-0.003044
-0.001988
-0.000964
-0.000025
-0.000841
-0.000841
-0.000850
-0.000868
-0.000894
-0.000929
-0.000974
-0.001028
-0.001094
-0.001170
-0.001259
-0.001362
-0.001479
-0.001611
-0.001761
-0.001928
-0.002115
-0.002322
-0.002549
-0.002797
-0.003063
-0.003346
-0.003641
-0.003940
-0.004233
-0.004503
-0.004727
-0.004865
-0.004854
-0.004639
-0.004372
-0.003810
-0.003514
-0.002469
-0.001204
0.000004
-0.000880
-0.000880
-0.000889
-0.000906
-0.000931
-0.000965
-0.001007
-0.001059
-0.001121
-0.001193
-0.001277
-0.001372
-0.001481
-0.001603
-0.001739
-0.001890
-0.002057
-0.002239
-0.002437
-0.002649
-0.002873
-0.003105
-0.003341
-0.003572
-0.003789
-0.003977
-0.004117
-0.004187
-0.004154
-0.003996
-0.003748
-0.003343
-0.002927
-0.002158
-0.001092
0.000015
-0.000910
-0.000910
-0.000919
-0.000935
-0.000959
-0.000991
-0.001031
-0.001080
-0.001137
-0.001205
-0.001282
-0.001369
-0.001468
-0.001579
-0.001701
-0.001836
-0.001982
-0.002141
-0.002310
-0.002488
-0.002674
-0.002861
-0.003047
-0.003222
-0.003379
-0.003505
-0.003586
-0.003605
-0.003545
-0.003391
-0.003147
-0.002789
-0.002348
-0.001721
-0.000890
0.000009
-0.000933
-0.000933
-0.000942
-0.000957
-0.000979
-0.001009
-0.001046
-0.001091
-0.001144
-0.001205
-0.001275
-0.001355
-0.001444
-0.001542
-0.001650
-0.001768
-0.001895
-0.002031
-0.002174
-0.002322
-0.002472
-0.002621
-0.002764
-0.002895
-0.003004
-0.003083
-0.003121
-0.003106
-0.003026
-0.002869
-0.002633
-0.002306
-0.001893
-0.001363
-0.000709
0.000002
-0.000949
-0.000949
-0.000957
-0.000971
-0.000991
-0.001019
-0.001053
-0.001093
-0.001141
-0.001197
-0.001260
-0.001330
-0.001409
-0.001495
-0.001589
-0.001691
-0.001799
-0.001913
-0.002032
-0.002153
-0.002273
-0.002389
-0.002497
-0.002590
-0.002663
-0.002708
-0.002715
-0.002677
-0.002584
-0.002428
-0.002205
-0.001910
-0.001541
-0.001093
-0.000568
-0.000002
-0.000958
-0.000958
-0.000965
-0.000978
-0.000997
-0.001021
-0.001052
-0.001088
-0.001131
-0.001180
-0.001236
-0.001298
-0.001366
-0.001440
-0.001521
-0.001607
-0.001697
-0.001792
-0.001888
-0.001984
-0.002078
-0.002167
-0.002245
-0.002309
-0.002354
-0.002372
-0.002358
-0.002305
-0.002206
-0.002055
-0.001850
-0.001587
-0.001266
-0.000887
-0.000459
-0.000003
-0.000961
-0.000961
-0.000968
-0.000980
-0.000997
-0.001018
-0.001045
-0.001077
-0.001115
-0.001158
-0.001205
-0.001259
-0.001317
-0.001380
-0.001447
-0.001518
-0.001592
-0.001669
-0.001745
-0.001820
-0.001891
-0.001956
-0.002010
-0.002051
-0.002073
-0.002072
-0.002043
-0.001981
-0.001881
-0.001739
-0.001553
-0.001321
-0.001044
-0.000726
-0.000375
-0.000003
-0.000961
-0.000961
-0.000968
-0.000979
-0.000993
-0.001012
-0.001036
-0.001063
-0.001095
-0.001132
-0.001172
-0.001217
-0.001265
-0.001317
-0.001372
-0.001430
-0.001489
-0.001548
-0.001607
-0.001663
-0.001714
-0.001759
-0.001793
-0.001815
-0.001820
-0.001805
-0.001766
-0.001699
-0.001601
-0.001470
-0.001303
-0.001101
-0.000864
-0.000598
-0.000307
-0.000003
-0.000970
-0.000970
-0.000976
-0.000986
-0.000999
-0.001015
-0.001035
-0.001059
-0.001086
-0.001116
-0.001150
-0.001187
-0.001226
-0.001268
-0.001312
-0.001356
-0.001402
-0.001446
-0.001489
-0.001529
-0.001563
-0.001591
-0.001608
-0.001615
-0.001606
-0.001580
-0.001533
-0.001464
-0.001370
-0.001248
-0.001099
-0.000923
-0.000720
-0.000496
-0.000254
-0.000004
-0.001035
-0.001035
-0.001041
-0.001049
-0.001061
-0.001076
-0.001093
-0.001114
-0.001137
-0.001163
-0.001191
-0.001222
-0.001254
-0.001288
-0.001322
-0.001357
-0.001391
-0.001424
-0.001453
-0.001479