<VTKFile type="StructuredGrid" version="0.1" byte_order="LittleEndian">
<StructuredGrid WholeExtent="1 71 1 81 0 0">
<Piece Extent="36 71 1 21 0 0">
<PointData></PointData>
<CellData></CellData>
<Points>
<DataArray NumberOfComponents="3" format="ascii" type ="Float32" Name="mesh">
1.500000 0.000000 0.0
1.542857 0.000000 0.0
1.585714 0.000000 0.0
1.628571 0.000000 0.0
1.671429 0.000000 0.0
1.714286 0.000000 0.0
1.757143 0.000000 0.0
1.800000 0.000000 0.0
1.842857 0.000000 0.0
1.885714 0.000000 0.0
1.928571 0.000000 0.0
1.971429 0.000000 0.0
2.014286 0.000000 0.0
2.057143 0.000000 0.0
2.100000 0.000000 0.0
2.142857 0.000000 0.0
2.185714 0.000000 0.0
2.228571 0.000000 0.0
2.271429 0.000000 0.0
2.314286 0.000000 0.0
2.357143 0.000000 0.0
2.400000 0.000000 0.0
2.442857 0.000000 0.0
2.485714 0.000000 0.0
2.528571 0.000000 0.0
2.571429 0.000000 0.0
2.614286 0.000000 0.0
2.657143 0.000000 0.0
2.700000 0.000000 0.0
2.742857 0.000000 0.0
2.785714 0.000000 0.0
2.828571 0.000000 0.0
2.871429 0.000000 0.0
2.914286 0.000000 0.0
2.957143 0.000000 0.0
3.000000 0.000000 0.0
1.500000 0.043750 0.0
1.542857 0.043750 0.0
1.585714 0.043750 0.0
1.628571 0.043750 0.0
1.671429 0.043750 0.0
1.714286 0.043750 0.0
1.757143 0.043750 0.0
1.800000 0.043750 0.0
1.842857 0.043750 0.0
1.885714 0.043750 0.0
1.928571 0.043750 0.0
1.971429 0.043750 0.0
2.014286 0.043750 0.0
2.057143 0.043750 0.0
2.100000 0.043750 0.0
2.142857 0.043750 0.0
2.185714 0.043750 0.0
2.228571 0.043750 0.0
2.271429 0.043750 0.0
2.314286 0.043750 0.0
2.357143 0.043750 0.0
2.400000 0.043750 0.0
2.442857 0.043750 0.0
2.485714 0.043750 0.0
2.528571 0.043750 0.0
2.571429 0.043750 0.0
2.614286 0.043750 0.0
2.657143 0.043750 0.0
2.700000 0.043750 0.0
2.742857 0.043750 0.0
2.785714 0.043750 0.0
2.828571 0.043750 0.0
2.871429 0.043750 0.0
2.914286 0.043750 0.0
2.957143 0.043750 0.0
3.000000 0.043750 0.0
1.500000 0.087500 0.0
1.542857 0.087500 0.0
1.585714 0.087500 0.0
1.628571 0.087500 0.0
1.671429 0.087500 0.0
1.714286 0.087500 0.0
1.757143 0.087500 0.0
1.800000 0.087500 0.0
1.842857 0.087500 0.0
1.885714 0.087500 0.0
1.928571 0.087500 0.0
1.971429 0.087500 0.0
2.014286 0.087500 0.0
2.057143 0.087500 0.0
2.100000 0.087500 0.0
2.142857 0.087500 0.0
2.185714 0.087500 0.0
2.228571 0.087500 0.0
2.271429 0.087500 0.0
2.314286 0.087500 0.0
2.357143 0.087500 0.0
2.400000 0.087500 0.0
2.442857 0.087500 0.0
2.485714 0.087500 0.0
2.528571 0.087500 0.0
2.571429 0.087500 0.0
2.614286 0.087500 0.0
2.657143 0.087500 0.0
2.700000 0.087500 0.0
2.742857 0.087500 0.0
2.785714 0.087500 0.0
2.828571 0.087500 0.0
2.871429 0.087500 0.0
2.914286 0.087500 0.0
2.957143 0.087500 0.0
3.000000 0.087500 0.0
1.500000 0.131250 0.0
1.542857 0.131250 0.0
1.585714 0.131250 0.0
1.628571 0.131250 0.0
1.671429 0.131250 0.0
1.714286 0.131250 0.0
1.757143 0.131250 0.0
1.800000 0.131250 0.0
1.842857 0.131250 0.0
1.885714 0.131250 0.0
1.928571 0.131250 0.0
1.971429 0.131250 0.0
2.014286 0.131250 0.0
2.057143 0.131250 0.0
2.100000 0.131250 0.0
2.142857 0.131250 0.0
2.185714 0.131250 0.0
2.228571 0.131250 0.0
2.271429 0.131250 0.0
2.314286 0.131250 0.0
2.357143 0.131250 0.0
2.400000 0.131250 0.0
2.442857 0.131250 0.0
2.485714 0.131250 0.0
2.528571 0.131250 0.0
2.571429 0.131250 0.0
2.614286 0.131250 0.0
2.657143 0.131250 0.0
2.700000 0.131250 0.0
2.742857 0.131250 0.0
2.785714 0.131250 0.0
2.828571 0.131250 0.0
2.871429 0.131250 0.0
2.914286 0.131250 0.0
2.957143 0.131250 0.0
3.000000 0.131250 0.0
1.500000 0.175000 0.0
1.542857 0.175000 0.0
1.585714 0.175000 0.0
1.628571 0.175000 0.0
1.671429 0.175000 0.0
1.714286 0.175000 0.0
1.757143 0.175000 0.0
1.800000 0.175000 0.0
1.842857 0.175000 0.0
1.885714 0.175000 0.0
1.928571 0.175000 0.0
1.971429 0.175000 0.0
2.014286 0.175000 0.0
2.057143 0.175000 0.0
2.100000 0.175000 0.0
2.142857 0.175000 0.0
2.185714 0.175000 0.0
2.228571 0.175000 0.0
2.271429 0.175000 0.0
2.314286 0.175000 0.0
2.357143 0.175000 0.0
2.400000 0.175000 0.0
2.442857 0.175000 0.0
2.485714 0.175000 0.0
2.528571 0.175000 0.0
2.571429 0.175000 0.0
2.614286 0.175000 0.0
2.657143 0.175000 0.0
2.700000 0.175000 0.0
2.742857 0.175000 0.0
2.785714 0.175000 0.0
2.828571 0.175000 0.0
2.871429 0.175000 0.0
2.914286 0.175000 0.0
2.957143 0.175000 0.0
3.000000 0.175000 0.0
1.500000 0.218750 0.0
1.542857 0.218750 0.0
1.585714 0.218750 0.0
1.628571 0.218750 0.0
1.671429 0.218750 0.0
1.714286 0.218750 0.0
1.757143 0.218750 0.0
1.800000 0.218750 0.0
1.842857 0.218750 0.0
1.885714 0.218750 0.0
1.928571 0.218750 0.0
1.971429 0.218750 0.0
2.014286 0.218750 0.0
2.057143 0.218750 0.0
2.100000 0.218750 0.0
2.142857 0.218750 0.0
2.185714 0.218750 0.0
2.228571 0.218750 0.0
2.271429 0.218750 0.0
2.314286 0.218750 0.0
2.357143 0.218750 0.0
2.400000 0.218750 0.0
2.442857 0.218750 0.0
2.485714 0.218750 0.0
2.528571 0.218750 0.0
2.571429 0.218750 0.0
2.614286 0.218750 0.0
2.657143 0.218750 0.0
2.700000 0.218750 0.0
2.742857 0.218750 0.0
2.785714 0.218750 0.0
2.828571 0.218750 0.0
2.871429 0.218750 0.0
2.914286 0.218750 0.0
2.957143 0.218750 0.0
3.000000 0.218750 0.0
1.500000 0.262500 0.0
1.542857 0.262500 0.0
1.585714 0.262500 0.0
1.628571 0.262500 0.0
1.671429 0.262500 0.0
1.714286 0.262500 0.0
1.757143 0.262500 0.0
1.800000 0.262500 0.0
1.842857 0.262500 0.0
1.885714 0.262500 0.0
1.928571 0.262500 0.0
1.971429 0.262500 0.0
2.014286 0.262500 0.0
2.057143 0.262500 0.0
2.100000 0.262500 0.0
2.142857 0.262500 0.0
2.185714 0.262500 0.0
2.228571 0.262500 0.0
2.271429 0.262500 0.0
2.314286 0.262500 0.0
2.357143 0.262500 0.0
2.400000 0.262500 0.0
2.442857 0.262500 0.0
2.485714 0.262500 0.0
2.528571 0.262500 0.0
2.571429 0.262500 0.0
2.614286 0.262500 0.0
2.657143 0.262500 0.0
2.700000 0.262500 0.0
2.742857 0.262500 0.0
2.785714 0.262500 0.0
2.828571 0.262500 0.0
2.871429 0.262500 0.0
2.914286 0.262500 0.0
2.957143 0.262500 0.0
3.000000 0.262500 0.0
1.500000 0.306250 0.0
1.542857 0.306250 0.0
1.585714 0.306250 0.0
1.628571 0.306250 0.0
1.671429 0.306250 0.0
1.714286 0.306250 0.0
1.757143 0.306250 0.0
1.800000 0.306250 0.0
1.842857 0.306250 0.0
1.885714 0.306250 0.0
1.928571 0.306250 0.0
1.971429 0.306250 0.0
2.014286 0.306250 0.0
2.057143 0.306250 0.0
2.100000 0.306250 0.0
2.142857 0.306250 0.0
2.185714 0.306250 0.0
2.228571 0.306250 0.0
2.271429 0.306250 0.0
2.314286 0.306250 0.0
2.357143 0.306250 0.0
2.400000 0.306250 0.0
2.442857 0.306250 0.0
2.485714 0.306250 0.0
2.528571 0.306250 0.0
2.571429 0.306250 0.0
2.614286 0.306250 0.0
2.657143 0.306250 0.0
2.700000 0.306250 0.0
2.742857 0.306250 0.0
2.785714 0.306250 0.0
2.828571 0.306250 0.0
2.871429 0.306250 0.0
2.914286 0.306250 0.0
2.957143 0.306250 0.0
3.000000 0.306250 0.0
1.500000 0.350000 0.0
1.542857 0.350000 0.0
1.585714 0.350000 0.0
1.628571 0.350000 0.0
1.671429 0.350000 0.0
1.714286 0.350000 0.0
1.757143 0.350000 0.0
1.800000 0.350000 0.0
1.842857 0.350000 0.0
1.885714 0.350000 0.0
1.928571 0.350000 0.0
1.971429 0.350000 0.0
2.014286 0.350000 0.0
2.057143 0.350000 0.0
2.100000 0.350000 0.0
2.142857 0.350000 0.0
2.185714 0.350000 0.0
2.228571 0.350000 0.0
2.271429 0.350000 0.0
2.314286 0.350000 0.0
2.357143 0.350000 0.0
2.400000 0.350000 0.0
2.442857 0.350000 0.0
2.485714 0.350000 0.0
2.528571 0.350000 0.0
2.571429 0.350000 0.0
2.614286 0.350000 0.0
2.657143 0.350000 0.0
2.700000 0.350000 0.0
2.742857 0.350000 0.0
2.785714 0.350000 0.0
2.828571 0.350000 0.0
2.871429 0.350000 0.0
2.914286 0.350000 0.0
2.957143 0.350000 0.0
3.000000 0.350000 0.0
1.500000 0.393750 0.0
1.542857 0.393750 0.0
1.585714 0.393750 0.0
1.628571 0.393750 0.0
1.671429 0.393750 0.0
1.714286 0.393750 0.0
1.757143 0.393750 0.0
1.800000 0.393750 0.0
1.842857 0.393750 0.0
1.885714 0.393750 0.0
1.928571 0.393750 0.0
1.971429 0.393750 0.0
2.014286 0.393750 0.0
2.057143 0.393750 0.0
2.100000 0.393750 0.0
2.142857 0.393750 0.0
2.185714 0.393750 0.0
2.228571 0.393750 0.0
2.271429 0.393750 0.0
2.314286 0.393750 0.0
2.357143 0.393750 0.0
2.400000 0.393750 0.0
2.442857 0.393750 0.0
2.485714 0.393750 0.0
2.528571 0.393750 0.0
2.571429 0.393750 0.0
2.614286 0.393750 0.0
2.657143 0.393750 0.0
2.700000 0.393750 0.0
2.742857 0.393750 0.0
2.785714 0.393750 0.0
2.828571 0.393750 0.0
2.871429 0.393750 0.0
2.914286 0.393750 0.0
2.957143 0.393750 0.0
3.000000 0.393750 0.0
1.500000 0.437500 0.0
1.542857 0.437500 0.0
1.585714 0.437500 0.0
1.628571 0.437500 0.0
1.671429 0.437500 0.0
1.714286 0.437500 0.0
1.757143 0.437500 0.0
1.800000 0.437500 0.0
1.842857 0.437500 0.0
1.885714 0.437500 0.0
1.928571 0.437500 0.0
1.971429 0.437500 0.0
2.014286 0.437500 0.0
2.057143 0.437500 0.0
2.100000 0.437500 0.0
2.142857 0.437500 0.0
2.185714 0.437500 0.0
2.228571 0.437500 0.0
2.271429 0.437500 0.0
2.314286 0.437500 0.0
2.357143 0.437500 0.0
2.400000 0.437500 0.0
2.442857 0.437500 0.0
2.485714 0.437500 0.0
2.528571 0.437500 0.0
2.571429 0.437500 0.0
2.614286 0.437500 0.0
2.657143 0.437500 0.0
2.700000 0.437500 0.0
2.742857 0.437500 0.0
2.785714 0.437500 0.0
2.828571 0.437500 0.0
2.871429 0.437500 0.0
2.914286 0.437500 0.0
2.957143 0.437500 0.0
3.000000 0.437500 0.0
1.500000 0.481250 0.0
1.542857 0.481250 0.0
1.585714 0.481250 0.0
1.628571 0.481250 0.0
1.671429 0.481250 0.0
1.714286 0.481250 0.0
1.757143 0.481250 0.0
1.800000 0.481250 0.0
1.842857 0.481250 0.0
1.885714 0.481250 0.0
1.928571 0.481250 0.0
1.971429 0.481250 0.0
2.014286 0.481250 0.0
2.057143 0.481250 0.0
2.100000 0.481250 0.0
2.142857 0.481250 0.0
2.185714 0.481250 0.0
2.228571 0.481250 0.0
2.271429 0.481250 0.0
2.314286 0.481250 0.0
2.357143 0.481250 0.0
2.400000 0.481250 0.0
2.442857 0.481250 0.0
2.485714 0.481250 0.0
2.528571 0.481250 0.0
2.571429 0.481250 0.0
2.614286 0.481250 0.0
2.657143 0.481250 0.0
2.700000 0.481250 0.0
2.742857 0.481250 0.0
2.785714 0.481250 0.0
2.828571 0.481250 0.0
2.871429 0.481250 0.0
2.914286 0.481250 0.0
2.957143 0.481250 0.0
3.000000 0.481250 0.0
1.500000 0.525000 0.0
1.542857 0.525000 0.0
1.585714 0.525000 0.0
1.628571 0.525000 0.0
1.671429 0.525000 0.0
1.714286 0.525000 0.0
1.757143 0.525000 0.0
1.800000 0.525000 0.0
1.842857 0.525000 0.0
1.885714 0.525000 0.0
1.928571 0.525000 0.0
1.971429 0.525000 0.0
2.014286 0.525000 0.0
2.057143 0.525000 0.0
2.100000 0.525000 0.0
2.142857 0.525000 0.0
2.185714 0.525000 0.0
2.228571 0.525000 0.0
2.271429 0.525000 0.0
2.314286 0.525000 0.0
2.357143 0.525000 0.0
2.400000 0.525000 0.0
2.442857 0.525000 0.0
2.485714 0.525000 0.0
2.528571 0.525000 0.0
2.571429 0.525000 0.0
2.614286 0.525000 0.0
2.657143 0.525000 0.0
2.700000 0.525000 0.0
2.742857 0.525000 0.0
2.785714 0.525000 0.0
2.828571 0.525000 0.0
2.871429 0.525000 0.0
2.914286 0.525000 0.0
2.957143 0.525000 0.0
3.000000 0.525000 0.0
1.500000 0.568750 0.0
1.542857 0.568750 0.0
1.585714 0.568750 0.0
1.628571 0.568750 0.0
1.671429 0.568750 0.0
1.714286 0.568750 0.0
1.757143 0.568750 0.0
1.800000 0.568750 0.0
1.842857 0.568750 0.0
1.885714 0.568750 0.0
1.928571 0.568750 0.0
1.971429 0.568750 0.0
2.014286 0.568750 0.0
2.057143 0.568750 0.0
2.100000 0.568750 0.0
2.142857 0.568750 0.0
2.185714 0.568750 0.0
2.228571 0.568750 0.0
2.271429 0.568750 0.0
2.314286 0.568750 0.0
2.357143 0.568750 0.0
2.400000 0.568750 0.0
2.442857 0.568750 0.0
2.485714 0.568750 0.0
2.528571 0.568750 0.0
2.571429 0.568750 0.0
2.614286 0.568750 0.0
2.657143 0.568750 0.0
2.700000 0.568750 0.0
2.742857 0.568750 0.0
2.785714 0.568750 0.0
2.828571 0.568750 0.0
2.871429 0.568750 0.0
2.914286 0.568750 0.0
2.957143 0.568750 0.0
3.000000 0.568750 0.0
1.500000 0.612500 0.0
1.542857 0.612500 0.0
1.585714 0.612500 0.0
1.628571 0.612500 0.0
1.671429 0.612500 0.0
1.714286 0.612500 0.0
1.757143 0.612500 0.0
1.800000 0.612500 0.0
1.842857 0.612500 0.0
1.885714 0.612500 0.0
1.928571 0.612500 0.0
1.971429 0.612500 0.0
2.014286 0.612500 0.0
2.057143 0.612500 0.0
2.100000 0.612500 0.0
2.142857 0.612500 0.0
2.185714 0.612500 0.0
2.228571 0.612500 0.0
2.271429 0.612500 0.0
2.314286 0.612500 0.0
2.357143 0.612500 0.0
2.400000 0.612500 0.0
2.442857 0.612500 0.0
2.485714 0.612500 0.0
2.528571 0.612500 0.0
2.571429 0.612500 0.0
2.614286 0.612500 0.0
2.657143 0.612500 0.0
2.700000 0.612500 0.0
2.742857 0.612500 0.0
2.785714 0.612500 0.0
2.828571 0.612500 0.0
2.871429 0.612500 0.0
2.914286 0.612500 0.0
2.957143 0.612500 0.0
3.000000 0.612500 0.0
1.500000 0.656250 0.0
1.542857 0.656250 0.0
1.585714 0.656250 0.0
1.628571 0.656250 0.0
1.671429 0.656250 0.0
1.714286 0.656250 0.0
1.757143 0.656250 0.0
1.800000 0.656250 0.0
1.842857 0.656250 0.0
1.885714 0.656250 0.0
1.928571 0.656250 0.0
1.971429 0.656250 0.0
2.014286 0.656250 0.0
2.057143 0.656250 0.0
2.100000 0.656250 0.0
2.142857 0.656250 0.0
2.185714 0.656250 0.0
2.228571 0.656250 0.0
2.271429 0.656250 0.0
2.314286 0.656250 0.0
2.357143 0.656250 0.0
2.400000 0.656250 0.0
2.442857 0.656250 0.0
2.485714 0.656250 0.0
2.528571 0.656250 0.0
2.571429 0.656250 0.0
2.614286 0.656250 0.0
2.657143 0.656250 0.0
2.700000 0.656250 0.0
2.742857 0.656250 0.0
2.785714 0.656250 0.0
2.828571 0.656250 0.0
2.871429 0.656250 0.0
2.914286 0.656250 0.0
2.957143 0.656250 0.0
3.000000 0.656250 0.0
1.500000 0.700000 0.0
1.542857 0.700000 0.0
1.585714 0.700000 0.0
1.628571 0.700000 0.0
1.671429 0.700000 0.0
1.714286 0.700000 0.0
1.757143 0.700000 0.0
1.800000 0.700000 0.0
1.842857 0.700000 0.0
1.885714 0.700000 0.0
1.928571 0.700000 0.0
1.971429 0.700000 0.0
2.014286 0.700000 0.0
2.057143 0.700000 0.0
2.100000 0.700000 0.0
2.142857 0.700000 0.0
2.185714 0.700000 0.0
2.228571 0.700000 0.0
2.271429 0.700000 0.0
2.314286 0.700000 0.0
2.357143 0.700000 0.0
2.400000 0.700000 0.0
2.442857 0.700000 0.0
2.485714 0.700000 0.0
2.528571 0.700000 0.0
2.571429 0.700000 0.0
2.614286 0.700000 0.0
2.657143 0.700000 0.0
2.700000 0.700000 0.0
2.742857 0.700000 0.0
2.785714 0.700000 0.0
2.828571 0.700000 0.0
2.871429 0.700000 0.0
2.914286 0.700000 0.0
2.957143 0.700000 0.0
3.000000 0.700000 0.0
1.500000 0.743750 0.0
1.542857 0.743750 0.0
1.585714 0.743750 0.0
1.628571 0.743750 0.0
1.671429 0.743750 0.0
1.714286 0.743750 0.0
1.757143 0.743750 0.0
1.800000 0.743750 0.0
1.842857 0.743750 0.0
1.885714 0.743750 0.0
1.928571 0.743750 0.0
1.971429 0.743750 0.0
2.014286 0.743750 0.0
2.057143 0.743750 0.0
2.100000 0.743750 0.0
2.142857 0.743750 0.0
2.185714 0.743750 0.0
2.228571 0.743750 0.0
2.271429 0.743750 0.0
2.314286 0.743750 0.0
2.357143 0.743750 0.0
2.400000 0.743750 0.0
2.442857 0.743750 0.0
2.485714 0.743750 0.0
2.528571 0.743750 0.0
2.571429 0.743750 0.0
2.614286 0.743750 0.0
2.657143 0.743750 0.0
2.700000 0.743750 0.0
2.742857 0.743750 0.0
2.785714 0.743750 0.0
2.828571 0.743750 0.0
2.871429 0.743750 0.0
2.914286 0.743750 0.0
2.957143 0.743750 0.0
3.000000 0.743750 0.0
1.500000 0.787500 0.0
1.542857 0.787500 0.0
1.585714 0.787500 0.0
1.628571 0.787500 0.0
1.671429 0.787500 0.0
1.714286 0.787500 0.0
1.757143 0.787500 0.0
1.800000 0.787500 0.0
1.842857 0.787500 0.0
1.885714 0.787500 0.0
1.928571 0.787500 0.0
1.971429 0.787500 0.0
2.014286 0.787500 0.0
2.057143 0.787500 0.0
2.100000 0.787500 0.0
2.142857 0.787500 0.0
2.185714 0.787500 0.0
2.228571 0.787500 0.0
2.271429 0.787500 0.0
2.314286 0.787500 0.0
2.357143 0.787500 0.0
2.400000 0.787500 0.0
2.442857 0.787500 0.0
2.485714 0.787500 0.0
2.528571 0.787500 0.0
2.571429 0.787500 0.0
2.614286 0.787500 0.0
2.657143 0.787500 0.0
2.700000 0.787500 0.0
2.742857 0.787500 0.0
2.785714 0.787500 0.0
2.828571 0.787500 0.0
2.871429 0.787500 0.0
2.914286 0.787500 0.0
2.957143 0.787500 0.0
3.000000 0.787500 0.0
1.500000 0.831250 0.0
1.542857 0.831250 0.0
1.585714 0.831250 0.0
1.628571 0.831250 0.0
1.671429 0.831250 0.0
1.714286 0.831250 0.0
1.757143 0.831250 0.0
1.800000 0.831250 0.0
1.842857 0.831250 0.0
1.885714 0.831250 0.0
1.928571 0.831250 0.0
1.971429 0.831250 0.0
2.014286 0.831250 0.0
2.057143 0.831250 0.0
2.100000 0.831250 0.0
2.142857 0.831250 0.0
2.185714 0.831250 0.0
2.228571 0.831250 0.0
2.271429 0.831250 0.0
2.314286 0.831250 0.0
2.357143 0.831250 0.0
2.400000 0.831250 0.0
2.442857 0.831250 0.0
2.485714 0.831250 0.0
2.528571 0.831250 0.0
2.571429 0.831250 0.0
2.614286 0.831250 0.0
2.657143 0.831250 0.0
2.700000 0.831250 0.0
2.742857 0.831250 0.0
2.785714 0.831250 0.0
2.828571 0.831250 0.0
2.871429 0.831250 0.0
2.914286 0.831250 0.0
2.957143 0.831250 0.0
3.000000 0.831250 0.0
1.500000 0.875000 0.0
1.542857 0.875000 0.0
1.585714 0.875000 0.0
1.628571 0.875000 0.0
1.671429 0.875000 0.0
1.714286 0.875000 0.0
1.757143 0.875000 0.0
1.800000 0.875000 0.0
1.842857 0.875000 0.0
1.885714 0.875000 0.0
1.928571 0.875000 0.0
1.971429 0.875000 0.0
2.014286 0.875000 0.0
2.057143 0.875000 0.0
2.100000 0.875000 0.0
2.142857 0.875000 0.0
2.185714 0.875000 0.0
2.228571 0.875000 0.0
2.271429 0.875000 0.0
2.314286 0.875000 0.0
2.357143 0.875000 0.0
2.400000 0.875000 0.0
2.442857 0.875000 0.0
2.485714 0.875000 0.0
2.528571 0.875000 0.0
2.571429 0.875000 0.0
2.614286 0.875000 0.0
2.657143 0.875000 0.0
2.700000 0.875000 0.0
2.742857 0.875000 0.0
2.785714 0.875000 0.0
2.828571 0.875000 0.0
2.871429 0.875000 0.0
2.914286 0.875000 0.0
2.957143 0.875000 0.0
3.000000 0.875000 0.0
</DataArray></Points>
<PointData>
<DataArray NumberOfComponents="1" format="ascii" type ="Float32" Name="phi">
0.983880
0.984518
0.986434
0.989651
0.994184
0.999978
1.006945
1.015030
1.024203
1.034460
1.045830
1.058350
1.071954
1.086525
1.102032
1.118573
1.136270
1.154965
1.174420
1.194570
1.215410
1.236988
1.259529
1.283053
1.307275
1.332055
1.357387
1.383372
1.410224
1.437816
1.465836
1.494214
1.522964
1.552158
1.581971
1.597061
0.962016
0.962663
0.964609
0.967879
0.972485
0.978368
0.985436
0.993635
1.002935
1.013328
1.024844
1.037533
1.051348
1.066159
1.081899
1.098609
1.116415
1.135283
1.155007
1.175462
1.196610
1.218469
1.241200
1.264910
1.289410
1.314502
1.340134
1.366351
1.393325
1.421072
1.449361
1.478040
1.507082
1.536522
1.566478
1.581605
0.918287
0.918955
0.920963
0.924341
0.929097
0.935160
0.942435
0.950868
0.960430
0.971110
0.982924
0.995942
1.010164
1.025457
1.041694
1.058824
1.076907
1.096054
1.116246
1.137308
1.159090
1.181551
1.204735
1.228801
1.253790
1.279499
1.305754
1.332511
1.359827
1.387840
1.416569
1.445836
1.475475
1.505452
1.535795
1.551065
0.874558
0.875248
0.877324
0.880815
0.885726
0.891977
0.899468
0.908146
0.917986
0.928976
0.941115
0.954456
0.969053
0.984814
1.001578
1.019244
1.037773
1.057225
1.077736
1.099302
1.121730
1.144857
1.168639
1.193133
1.218493
1.244726
1.271621
1.299012
1.326862
1.355223
1.384240
1.413954
1.444182
1.474754
1.505635
1.521152
0.830830
0.831543
0.833690
0.837302
0.842376
0.848820
0.856535
0.865470
0.875603
0.886924
0.899425
0.913117
0.928060
0.944244
0.961525
0.979764
0.998880
1.018838
1.039697
1.061603
1.084562
1.108367
1.132841
1.157936
1.183714
1.210320
1.237748
1.265790
1.294285
1.323199
1.352579
1.382577
1.413245
1.444404
1.475881
1.491691
0.787101
0.787839
0.790063
0.793804
0.799052
0.805700
0.813647
0.822847
0.833284
0.844956
0.857864
0.871983
0.887301
0.903839
0.921566
0.940365
0.960108
0.980713
1.002138
1.024438
1.047759
1.072116
1.097292
1.123096
1.149476
1.176495
1.204292
1.232866
1.262016
1.291580
1.321526
1.351899
1.382851
1.414446
1.446505
1.462614
0.743372
0.744137
0.746443
0.750327
0.755765
0.762632
0.770826
0.780303
0.791053
0.803089
0.816437
0.831054
0.846846
0.863776
0.881862
0.901112
0.921452
0.942744
0.964880
0.987804
1.011560
1.036292
1.062027
1.088546
1.115644
1.143269
1.171479
1.200413
1.230085
1.260305
1.290905
1.321851
1.353188
1.385073
1.417547
1.433915
0.699643
0.700437
0.702832
0.706871
0.712514
0.719618
0.728081
0.737860
0.748947
0.761361
0.775154
0.790281
0.806617
0.824076
0.842611
0.862246
0.883035
0.904943
0.927821
0.951510
0.975936
1.001136
1.027253
1.054326
1.082140
1.110487
1.139310
1.168662
1.198684
1.229414
1.260666
1.292270
1.324186
1.356464
1.389215
1.405725
0.655914
0.656739
0.659231
0.663434
0.669294
0.676650
0.685402
0.695514
0.706975
0.719797
0.734033
0.749656
0.766539
0.784591
0.803740
0.823918
0.845140
0.867494
0.890994
0.915462
0.940689
0.966593
0.993200
1.020656
1.049015
1.078072
1.107617
1.137591
1.168041
1.199111
1.230861
1.263113
1.295688
1.328547
1.361714
1.378382
0.612186
0.613045
0.615640
0.620018
0.626105
0.633727
0.642785
0.653252
0.665121
0.678392
0.693094
0.709202
0.726615
0.745257
0.765070
0.785960
0.807834
0.830686
0.854629
0.879712
0.905735
0.932458
0.959790
0.987753
1.016492
1.046082
1.076331
1.107028
1.138111
1.169620
1.201705
1.234441
1.267659
1.301175
1.334945
1.351892
0.568457
0.569354
0.572061
0.576624
0.582951
0.590851
0.600233
0.611077
0.623386
0.637157
0.652369
0.668975
0.686905
0.706111
0.726575
0.748217
0.770899
0.794500
0.819000
0.844525
0.871147
0.898664
0.926820
0.955518
0.984778
1.014747
1.045518
1.076914
1.108721
1.140874
1.173410
1.206479
1.240169
1.274317
1.308740
1.326008
0.524729
0.525666
0.528497
0.533261
0.539843
0.548038
0.557762
0.569006
0.581788
0.596118
0.611917
0.629075
0.647549
0.667314
0.688365
0.710704
0.734217
0.758700
0.784017
0.810142
0.837203
0.865300
0.894241
0.923761
0.953763
0.984264
1.015415
1.047326
1.079829
1.112707
1.145894
1.179423
1.213443
1.248052
1.283090
1.300679
0.481001
0.481981
0.484950
0.489939
0.496798
0.505310
0.515403
0.527076
0.540367
0.555300
0.571746
0.589537
0.608640
0.629052
0.650722
0.673642
0.697851
0.723207
0.749449
0.776428
0.804118
0.832653
0.862154
0.892447
0.923271
0.954520
0.986212
1.018504
1.051516
1.085088
1.118998
1.153180
1.187664
1.222602
1.258064
1.275913
0.437273
0.438302
0.441423
0.446657
0.453819
0.462680
0.473179
0.485324
0.499162
0.514712
0.531824
0.550311
0.570119
0.591282
0.613734
0.637339
0.662117
0.688139
0.715251
0.743168
0.771729
0.800911
0.830853
0.861693
0.893279
0.925349
0.957795
0.990635
1.024029
1.058104
1.092700
1.127596
1.162726
1.198122
1.233896
1.251897
0.393547
0.394629
0.397916
0.403415
0.410902
0.420141
0.431088
0.443761
0.458194
0.474370
0.492156
0.511376
0.531941
0.553890
0.577218
0.601736
0.627265
0.653850
0.681588
0.710347
0.739844
0.769904
0.800505
0.831791
0.863915
0.896742
0.930009
0.963604
0.997547
1.032002
1.067093
1.102659
1.138483
1.174502
1.210736
1.228914
0.349821
0.350961
0.354430
0.360213
0.368048
0.377694
0.389128
0.402392
0.417488
0.434324
0.452788
0.472761
0.494136
0.516896
0.541097
0.566602
0.593122
0.620506
0.648809
0.678159
0.708472
0.739463
0.770945
0.802900
0.835476
0.868838
0.902855
0.937264
0.971955
1.006951
1.042414
1.078461
1.114929
1.151611
1.188448
1.206904
0.306095
0.307302
0.310970
0.317062
0.325270
0.335355
0.347320
0.361241
0.377086
0.394665
0.413836
0.434569
0.456814
0.480459
0.505497
0.531922
0.559481
0.587884
0.617012
0.646939
0.677823
0.709614
0.742028
0.774866
0.808116
0.841931
0.876479
0.911626
0.947113
0.982835
1.018818
1.055221
1.092150
1.129442
1.166903
1.185663
0.262370
0.263651
0.267546
0.273978
0.282592
0.293156
0.305712
0.320352
0.337010
0.355427
0.375417
0.396968
0.420147
0.444813
0.470745
0.497936
0.526382
0.555827
0.585983
0.616753
0.648224
0.680580
0.713789
0.747557
0.781687
0.816172
0.851168
0.886836
0.923037
0.959520
0.996190
1.033078
1.070341
1.108071
1.146103
1.165159
0.218647
0.220011
0.224161
0.230972
0.240031
0.251127
0.264353
0.279786
0.297283
0.316586
0.337525
0.360034
0.384209
0.409973
0.436965
0.464989
0.494125
0.524415
0.555607
0.587410
0.619735
0.652683
0.686459
0.721022
0.756069
0.791415
0.827059
0.863158
0.899862
0.937024
0.974404
1.011926
1.049628
1.087671
1.126106
1.145405
0.174925
0.176384
0.180819
0.188048
0.197593
0.209283
0.223283
0.239598
0.257961
0.278172
0.300143
0.323757
0.348995
0.375841
0.403984
0.433074
0.463020
0.493962
0.525986
0.558829
0.592189
0.625992
0.660357
0.695490
0.731321
0.767548
0.804008
0.840711
0.877817
0.915458
0.953474
0.991649
1.029925
1.068357
1.107069
1.126512
0.131204
0.132773
0.137527
0.145213
0.155288
0.167651
0.182545
0.199837
0.219143
0.240321
0.263394
0.288241
0.314633
0.342509
0.371743
0.401993
0.433009
0.464764
0.497442
0.531130
0.565532
0.600356
0.635552
0.671253
0.707649
0.744631
0.781908
0.819357
0.857002
0.895010
0.933485
0.972252
1.011125
1.050071
1.089140
1.113011
</DataArray>
<DataArray NumberOfComponents="1" format="ascii" type ="Float32" Name="u">
0.000000
0.000000
0.000000
0.000000
0.000000
0.000000
0.000000
0.000000
0.000000
0.000000
0.000000
0.000000
0.000000
0.000000
0.000000
0.000000
0.000000
0.000000
0.000000
0.000000
0.000000
0.000000
0.000000
0.000000
0.000000
0.000000
0.000000
0.000000
0.000000
0.000000
0.000000
0.000000
0.000000
0.000000
0.000000
0.000000
0.000001
-0.000107
-0.000213
-0.000318
-0.000421
-0.000519
-0.000614
-0.000704
-0.000789
-0.000869
-0.000942
-0.001010
-0.001071
-0.001126
-0.001176
-0.001219
-0.001257
-0.001290
-0.001318
-0.001342
-0.001362
-0.001377
-0.001390
-0.001400
-0.001407
-0.001412
-0.001415
-0.001416
-0.001416
-0.001415
-0.001413
-0.001410
-0.001406
-0.001401
-0.001395
-0.001395
0.000001
-0.000137
-0.000273
-0.000407
-0.000538
-0.000664
-0.000785
-0.000900
-0.001008
-0.001109
-0.001202
-0.001288
-0.001365
-0.001435
-0.001497
-0.001552
-0.001599
-0.001640
-0.001675
-0.001704
-0.001727
-0.001747
-0.001761
-0.001773
-0.001780
-0.001786
-0.001788
-0.001789
-0.001788
-0.001786
-0.001782
-0.001777
-0.001772
-0.001765
-0.001759
-0.001759
0.000001
-0.000145
-0.000290
-0.000433
-0.000571
-0.000705
-0.000833
-0.000954
-0.001068
-0.001174
-0.001271
-0.001361
-0.001441
-0.001514
-0.001578
-0.001634
-0.001683
-0.001724
-0.001759
-0.001788
-0.001812
-0.001830
-0.001844
-0.001855
-0.001862
-0.001866
-0.001868
-0.001868
-0.001866
-0.001863
-0.001858
-0.001853
-0.001847
-0.001840
-0.001834
-0.001834
0.000001
-0.000150
-0.000300
-0.000447
-0.000590
-0.000727
-0.000859
-0.000983
-0.001099
-0.001207
-0.001306
-0.001396
-0.001477
-0.001549
-0.001613
-0.001668
-0.001716
-0.001756
-0.001790
-0.001817
-0.001839
-0.001856
-0.001869
-0.001878
-0.001883
-0.001886
-0.001887
-0.001886
-0.001883
-0.001879
-0.001873
-0.001868
-0.001861
-0.001855
-0.001848
-0.001848
0.000001
-0.000156
-0.000311
-0.000463
-0.000611
-0.000752
-0.000887
-0.001015
-0.001133
-0.001243
-0.001342
-0.001433
-0.001514
-0.001585
-0.001647
-0.001701
-0.001747
-0.001785
-0.001816
-0.001842
-0.001861
-0.001876
-0.001887
-0.001893
-0.001897
-0.001898
-0.001897
-0.001894
-0.001890
-0.001885
-0.001879
-0.001873
-0.001866
-0.001859
-0.001852
-0.001852
0.000001
-0.000163
-0.000325
-0.000483
-0.000637
-0.000784
-0.000924
-0.001054
-0.001176
-0.001287
-0.001388
-0.001478
-0.001559
-0.001629
-0.001689
-0.001741
-0.001784
-0.001820
-0.001848
-0.001870
-0.001887
-0.001899
-0.001906
-0.001911
-0.001912
-0.001911
-0.001908
-0.001903
-0.001897
-0.001891
-0.001884
-0.001877
-0.001869
-0.001862
-0.001855
-0.001855
0.000001
-0.000172
-0.000342
-0.000509
-0.000670
-0.000824
-0.000969
-0.001104
-0.001229
-0.001342
-0.001444
-0.001535
-0.001614
-0.001683
-0.001741
-0.001790
-0.001829
-0.001861
-0.001886
-0.001905
-0.001917
-0.001926
-0.001930
-0.001931
-0.001929
-0.001925
-0.001919
-0.001913
-0.001905
-0.001897
-0.001889
-0.001880
-0.001872
-0.001865
-0.001858
-0.001858
0.000001
-0.000183
-0.000364
-0.000541
-0.000711
-0.000873
-0.001025
-0.001165
-0.001294
-0.001409
-0.001512
-0.001603
-0.001681
-0.001747
-0.001802
-0.001847
-0.001883
-0.001910
-0.001931
-0.001944
-0.001953
-0.001957
-0.001957
-0.001954
-0.001948
-0.001941
-0.001932
-0.001923
-0.001913
-0.001903
-0.001893
-0.001884
-0.001875
-0.001867
-0.001859
-0.001859
0.000001
-0.000196
-0.000391
-0.000580
-0.000761
-0.000932
-0.001092
-0.001239
-0.001372
-0.001490
-0.001594
-0.001684
-0.001760
-0.001823
-0.001874
-0.001915
-0.001945
-0.001967
-0.001982
-0.001990
-0.001993
-0.001992
-0.001987
-0.001979
-0.001969
-0.001958
-0.001946
-0.001934
-0.001921
-0.001909
-0.001898
-0.001887
-0.001877
-0.001868
-0.001860
-0.001860
0.000001
-0.000212
-0.000423
-0.000627
-0.000821
-0.001004
-0.001174
-0.001327
-0.001465
-0.001586
-0.001691
-0.001779
-0.001852
-0.001911
-0.001957
-0.001992
-0.002016
-0.002032
-0.002039
-0.002041
-0.002038
-0.002030
-0.002019
-0.002006
-0.001992
-0.001976
-0.001960
-0.001945
-0.001929
-0.001915
-0.001901
-0.001889
-0.001878
-0.001868
-0.001860
-0.001860
0.000002
-0.000232
-0.000462
-0.000684
-0.000894
-0.001091
-0.001271
-0.001433
-0.001576
-0.001700
-0.001804
-0.001891
-0.001960
-0.002013
-0.002053
-0.002080
-0.002096
-0.002104
-0.002104
-0.002097
-0.002086
-0.002072
-0.002054
-0.002035
-0.002015
-0.001995
-0.001975
-0.001955
-0.001936
-0.001919
-0.001903
-0.001889
-0.001877
-0.001867
-0.001858
-0.001858
0.000002
-0.000256
-0.000509
-0.000753
-0.000982
-0.001195
-0.001388
-0.001559
-0.001708
-0.001833
-0.001937
-0.002020
-0.002083
-0.002130
-0.002161
-0.002179
-0.002186
-0.002184
-0.002174
-0.002159
-0.002139
-0.002116
-0.002091
-0.002065
-0.002039
-0.002013
-0.001988
-0.001964
-0.001942
-0.001922
-0.001903
-0.001887
-0.001874
-0.001863
-0.001854
-0.001854
0.000002
-0.000285
-0.000566
-0.000836
-0.001089
-0.001321
-0.001528
-0.001709
-0.001863
-0.001990
-0.002092
-0.002169
-0.002225
-0.002262
-0.002283
-0.002289
-0.002285
-0.002271
-0.002250
-0.002224
-0.002194
-0.002162
-0.002129
-0.002096
-0.002063
-0.002031
-0.002000
-0.001972
-0.001946
-0.001922
-0.001901
-0.001883
-0.001868
-0.001856
-0.001847
-0.001847
0.000003
-0.000320
-0.000636
-0.000938
-0.001218
-0.001472
-0.001696
-0.001888
-0.002047
-0.002174
-0.002271
-0.002341
-0.002386
-0.002411
-0.002418
-0.002411
-0.002393
-0.002365
-0.002332
-0.002293
-0.002252
-0.002210
-0.002167
-0.002125
-0.002085
-0.002047
-0.002011
-0.001977
-0.001947
-0.001920
-0.001896
-0.001876
-0.001860
-0.001846
-0.001837
-0.001837
0.000003
-0.000364
-0.000722
-0.001062
-0.001376
-0.001656
-0.001899
-0.002102
-0.002265
-0.002390
-0.002479
-0.002538
-0.002569
-0.002578
-0.002569
-0.002545
-0.002510
-0.002466
-0.002418
-0.002365
-0.002312
-0.002258
-0.002205
-0.002154
-0.002105
-0.002060
-0.002018
-0.001979
-0.001945
-0.001914
-0.001888
-0.001865
-0.001847
-0.001833
-0.001823
-0.001823
0.000005
-0.000416
-0.000827
-0.001215
-0.001570
-0.001882
-0.002145
-0.002359
-0.002524
-0.002642
-0.002720
-0.002763
-0.002776
-0.002764
-0.002734
-0.002690
-0.002635
-0.002573
-0.002507
-0.002439
-0.002371
-0.002304
-0.002240
-0.002179
-0.002122
-0.002069
-0.002021
-0.001978
-0.001939
-0.001905
-0.001875
-0.001850
-0.001830
-0.001815
-0.001804
-0.001804
0.000007