<VTKFile type="StructuredGrid" version="0.1" byte_order="LittleEndian">
<StructuredGrid WholeExtent="1 71 1 81 0 0">
<Piece Extent="36 71 41 61 0 0">
<PointData></PointData>
<CellData></CellData>
<Points>
<DataArray NumberOfComponents="3" format="ascii" type ="Float32" Name="mesh">
1.500000 1.750000 0.0
1.542857 1.750000 0.0
1.585714 1.750000 0.0
1.628571 1.750000 0.0
1.671429 1.750000 0.0
1.714286 1.750000 0.0
1.757143 1.750000 0.0
1.800000 1.750000 0.0
1.842857 1.750000 0.0
1.885714 1.750000 0.0
1.928571 1.750000 0.0
1.971429 1.750000 0.0
2.014286 1.750000 0.0
2.057143 1.750000 0.0
2.100000 1.750000 0.0
2.142857 1.750000 0.0
2.185714 1.750000 0.0
2.228571 1.750000 0.0
2.271429 1.750000 0.0
2.314286 1.750000 0.0
2.357143 1.750000 0.0
2.400000 1.750000 0.0
2.442857 1.750000 0.0
2.485714 1.750000 0.0
2.528571 1.750000 0.0
2.571429 1.750000 0.0
2.614286 1.750000 0.0
2.657143 1.750000 0.0
2.700000 1.750000 0.0
2.742857 1.750000 0.0
2.785714 1.750000 0.0
2.828571 1.750000 0.0
2.871429 1.750000 0.0
2.914286 1.750000 0.0
2.957143 1.750000 0.0
3.000000 1.750000 0.0
1.500000 1.793750 0.0
1.542857 1.793750 0.0
1.585714 1.793750 0.0
1.628571 1.793750 0.0
1.671429 1.793750 0.0
1.714286 1.793750 0.0
1.757143 1.793750 0.0
1.800000 1.793750 0.0
1.842857 1.793750 0.0
1.885714 1.793750 0.0
1.928571 1.793750 0.0
1.971429 1.793750 0.0
2.014286 1.793750 0.0
2.057143 1.793750 0.0
2.100000 1.793750 0.0
2.142857 1.793750 0.0
2.185714 1.793750 0.0
2.228571 1.793750 0.0
2.271429 1.793750 0.0
2.314286 1.793750 0.0
2.357143 1.793750 0.0
2.400000 1.793750 0.0
2.442857 1.793750 0.0
2.485714 1.793750 0.0
2.528571 1.793750 0.0
2.571429 1.793750 0.0
2.614286 1.793750 0.0
2.657143 1.793750 0.0
2.700000 1.793750 0.0
2.742857 1.793750 0.0
2.785714 1.793750 0.0
2.828571 1.793750 0.0
2.871429 1.793750 0.0
2.914286 1.793750 0.0
2.957143 1.793750 0.0
3.000000 1.793750 0.0
1.500000 1.837500 0.0
1.542857 1.837500 0.0
1.585714 1.837500 0.0
1.628571 1.837500 0.0
1.671429 1.837500 0.0
1.714286 1.837500 0.0
1.757143 1.837500 0.0
1.800000 1.837500 0.0
1.842857 1.837500 0.0
1.885714 1.837500 0.0
1.928571 1.837500 0.0
1.971429 1.837500 0.0
2.014286 1.837500 0.0
2.057143 1.837500 0.0
2.100000 1.837500 0.0
2.142857 1.837500 0.0
2.185714 1.837500 0.0
2.228571 1.837500 0.0
2.271429 1.837500 0.0
2.314286 1.837500 0.0
2.357143 1.837500 0.0
2.400000 1.837500 0.0
2.442857 1.837500 0.0
2.485714 1.837500 0.0
2.528571 1.837500 0.0
2.571429 1.837500 0.0
2.614286 1.837500 0.0
2.657143 1.837500 0.0
2.700000 1.837500 0.0
2.742857 1.837500 0.0
2.785714 1.837500 0.0
2.828571 1.837500 0.0
2.871429 1.837500 0.0
2.914286 1.837500 0.0
2.957143 1.837500 0.0
3.000000 1.837500 0.0
1.500000 1.881250 0.0
1.542857 1.881250 0.0
1.585714 1.881250 0.0
1.628571 1.881250 0.0
1.671429 1.881250 0.0
1.714286 1.881250 0.0
1.757143 1.881250 0.0
1.800000 1.881250 0.0
1.842857 1.881250 0.0
1.885714 1.881250 0.0
1.928571 1.881250 0.0
1.971429 1.881250 0.0
2.014286 1.881250 0.0
2.057143 1.881250 0.0
2.100000 1.881250 0.0
2.142857 1.881250 0.0
2.185714 1.881250 0.0
2.228571 1.881250 0.0
2.271429 1.881250 0.0
2.314286 1.881250 0.0
2.357143 1.881250 0.0
2.400000 1.881250 0.0
2.442857 1.881250 0.0
2.485714 1.881250 0.0
2.528571 1.881250 0.0
2.571429 1.881250 0.0
2.614286 1.881250 0.0
2.657143 1.881250 0.0
2.700000 1.881250 0.0
2.742857 1.881250 0.0
2.785714 1.881250 0.0
2.828571 1.881250 0.0
2.871429 1.881250 0.0
2.914286 1.881250 0.0
2.957143 1.881250 0.0
3.000000 1.881250 0.0
1.500000 1.925000 0.0
1.542857 1.925000 0.0
1.585714 1.925000 0.0
1.628571 1.925000 0.0
1.671429 1.925000 0.0
1.714286 1.925000 0.0
1.757143 1.925000 0.0
1.800000 1.925000 0.0
1.842857 1.925000 0.0
1.885714 1.925000 0.0
1.928571 1.925000 0.0
1.971429 1.925000 0.0
2.014286 1.925000 0.0
2.057143 1.925000 0.0
2.100000 1.925000 0.0
2.142857 1.925000 0.0
2.185714 1.925000 0.0
2.228571 1.925000 0.0
2.271429 1.925000 0.0
2.314286 1.925000 0.0
2.357143 1.925000 0.0
2.400000 1.925000 0.0
2.442857 1.925000 0.0
2.485714 1.925000 0.0
2.528571 1.925000 0.0
2.571429 1.925000 0.0
2.614286 1.925000 0.0
2.657143 1.925000 0.0
2.700000 1.925000 0.0
2.742857 1.925000 0.0
2.785714 1.925000 0.0
2.828571 1.925000 0.0
2.871429 1.925000 0.0
2.914286 1.925000 0.0
2.957143 1.925000 0.0
3.000000 1.925000 0.0
1.500000 1.968750 0.0
1.542857 1.968750 0.0
1.585714 1.968750 0.0
1.628571 1.968750 0.0
1.671429 1.968750 0.0
1.714286 1.968750 0.0
1.757143 1.968750 0.0
1.800000 1.968750 0.0
1.842857 1.968750 0.0
1.885714 1.968750 0.0
1.928571 1.968750 0.0
1.971429 1.968750 0.0
2.014286 1.968750 0.0
2.057143 1.968750 0.0
2.100000 1.968750 0.0
2.142857 1.968750 0.0
2.185714 1.968750 0.0
2.228571 1.968750 0.0
2.271429 1.968750 0.0
2.314286 1.968750 0.0
2.357143 1.968750 0.0
2.400000 1.968750 0.0
2.442857 1.968750 0.0
2.485714 1.968750 0.0
2.528571 1.968750 0.0
2.571429 1.968750 0.0
2.614286 1.968750 0.0
2.657143 1.968750 0.0
2.700000 1.968750 0.0
2.742857 1.968750 0.0
2.785714 1.968750 0.0
2.828571 1.968750 0.0
2.871429 1.968750 0.0
2.914286 1.968750 0.0
2.957143 1.968750 0.0
3.000000 1.968750 0.0
1.500000 2.012500 0.0
1.542857 2.012500 0.0
1.585714 2.012500 0.0
1.628571 2.012500 0.0
1.671429 2.012500 0.0
1.714286 2.012500 0.0
1.757143 2.012500 0.0
1.800000 2.012500 0.0
1.842857 2.012500 0.0
1.885714 2.012500 0.0
1.928571 2.012500 0.0
1.971429 2.012500 0.0
2.014286 2.012500 0.0
2.057143 2.012500 0.0
2.100000 2.012500 0.0
2.142857 2.012500 0.0
2.185714 2.012500 0.0
2.228571 2.012500 0.0
2.271429 2.012500 0.0
2.314286 2.012500 0.0
2.357143 2.012500 0.0
2.400000 2.012500 0.0
2.442857 2.012500 0.0
2.485714 2.012500 0.0
2.528571 2.012500 0.0
2.571429 2.012500 0.0
2.614286 2.012500 0.0
2.657143 2.012500 0.0
2.700000 2.012500 0.0
2.742857 2.012500 0.0
2.785714 2.012500 0.0
2.828571 2.012500 0.0
2.871429 2.012500 0.0
2.914286 2.012500 0.0
2.957143 2.012500 0.0
3.000000 2.012500 0.0
1.500000 2.056250 0.0
1.542857 2.056250 0.0
1.585714 2.056250 0.0
1.628571 2.056250 0.0
1.671429 2.056250 0.0
1.714286 2.056250 0.0
1.757143 2.056250 0.0
1.800000 2.056250 0.0
1.842857 2.056250 0.0
1.885714 2.056250 0.0
1.928571 2.056250 0.0
1.971429 2.056250 0.0
2.014286 2.056250 0.0
2.057143 2.056250 0.0
2.100000 2.056250 0.0
2.142857 2.056250 0.0
2.185714 2.056250 0.0
2.228571 2.056250 0.0
2.271429 2.056250 0.0
2.314286 2.056250 0.0
2.357143 2.056250 0.0
2.400000 2.056250 0.0
2.442857 2.056250 0.0
2.485714 2.056250 0.0
2.528571 2.056250 0.0
2.571429 2.056250 0.0
2.614286 2.056250 0.0
2.657143 2.056250 0.0
2.700000 2.056250 0.0
2.742857 2.056250 0.0
2.785714 2.056250 0.0
2.828571 2.056250 0.0
2.871429 2.056250 0.0
2.914286 2.056250 0.0
2.957143 2.056250 0.0
3.000000 2.056250 0.0
1.500000 2.100000 0.0
1.542857 2.100000 0.0
1.585714 2.100000 0.0
1.628571 2.100000 0.0
1.671429 2.100000 0.0
1.714286 2.100000 0.0
1.757143 2.100000 0.0
1.800000 2.100000 0.0
1.842857 2.100000 0.0
1.885714 2.100000 0.0
1.928571 2.100000 0.0
1.971429 2.100000 0.0
2.014286 2.100000 0.0
2.057143 2.100000 0.0
2.100000 2.100000 0.0
2.142857 2.100000 0.0
2.185714 2.100000 0.0
2.228571 2.100000 0.0
2.271429 2.100000 0.0
2.314286 2.100000 0.0
2.357143 2.100000 0.0
2.400000 2.100000 0.0
2.442857 2.100000 0.0
2.485714 2.100000 0.0
2.528571 2.100000 0.0
2.571429 2.100000 0.0
2.614286 2.100000 0.0
2.657143 2.100000 0.0
2.700000 2.100000 0.0
2.742857 2.100000 0.0
2.785714 2.100000 0.0
2.828571 2.100000 0.0
2.871429 2.100000 0.0
2.914286 2.100000 0.0
2.957143 2.100000 0.0
3.000000 2.100000 0.0
1.500000 2.143750 0.0
1.542857 2.143750 0.0
1.585714 2.143750 0.0
1.628571 2.143750 0.0
1.671429 2.143750 0.0
1.714286 2.143750 0.0
1.757143 2.143750 0.0
1.800000 2.143750 0.0
1.842857 2.143750 0.0
1.885714 2.143750 0.0
1.928571 2.143750 0.0
1.971429 2.143750 0.0
2.014286 2.143750 0.0
2.057143 2.143750 0.0
2.100000 2.143750 0.0
2.142857 2.143750 0.0
2.185714 2.143750 0.0
2.228571 2.143750 0.0
2.271429 2.143750 0.0
2.314286 2.143750 0.0
2.357143 2.143750 0.0
2.400000 2.143750 0.0
2.442857 2.143750 0.0
2.485714 2.143750 0.0
2.528571 2.143750 0.0
2.571429 2.143750 0.0
2.614286 2.143750 0.0
2.657143 2.143750 0.0
2.700000 2.143750 0.0
2.742857 2.143750 0.0
2.785714 2.143750 0.0
2.828571 2.143750 0.0
2.871429 2.143750 0.0
2.914286 2.143750 0.0
2.957143 2.143750 0.0
3.000000 2.143750 0.0
1.500000 2.187500 0.0
1.542857 2.187500 0.0
1.585714 2.187500 0.0
1.628571 2.187500 0.0
1.671429 2.187500 0.0
1.714286 2.187500 0.0
1.757143 2.187500 0.0
1.800000 2.187500 0.0
1.842857 2.187500 0.0
1.885714 2.187500 0.0
1.928571 2.187500 0.0
1.971429 2.187500 0.0
2.014286 2.187500 0.0
2.057143 2.187500 0.0
2.100000 2.187500 0.0
2.142857 2.187500 0.0
2.185714 2.187500 0.0
2.228571 2.187500 0.0
2.271429 2.187500 0.0
2.314286 2.187500 0.0
2.357143 2.187500 0.0
2.400000 2.187500 0.0
2.442857 2.187500 0.0
2.485714 2.187500 0.0
2.528571 2.187500 0.0
2.571429 2.187500 0.0
2.614286 2.187500 0.0
2.657143 2.187500 0.0
2.700000 2.187500 0.0
2.742857 2.187500 0.0
2.785714 2.187500 0.0
2.828571 2.187500 0.0
2.871429 2.187500 0.0
2.914286 2.187500 0.0
2.957143 2.187500 0.0
3.000000 2.187500 0.0
1.500000 2.231250 0.0
1.542857 2.231250 0.0
1.585714 2.231250 0.0
1.628571 2.231250 0.0
1.671429 2.231250 0.0
1.714286 2.231250 0.0
1.757143 2.231250 0.0
1.800000 2.231250 0.0
1.842857 2.231250 0.0
1.885714 2.231250 0.0
1.928571 2.231250 0.0
1.971429 2.231250 0.0
2.014286 2.231250 0.0
2.057143 2.231250 0.0
2.100000 2.231250 0.0
2.142857 2.231250 0.0
2.185714 2.231250 0.0
2.228571 2.231250 0.0
2.271429 2.231250 0.0
2.314286 2.231250 0.0
2.357143 2.231250 0.0
2.400000 2.231250 0.0
2.442857 2.231250 0.0
2.485714 2.231250 0.0
2.528571 2.231250 0.0
2.571429 2.231250 0.0
2.614286 2.231250 0.0
2.657143 2.231250 0.0
2.700000 2.231250 0.0
2.742857 2.231250 0.0
2.785714 2.231250 0.0
2.828571 2.231250 0.0
2.871429 2.231250 0.0
2.914286 2.231250 0.0
2.957143 2.231250 0.0
3.000000 2.231250 0.0
1.500000 2.275000 0.0
1.542857 2.275000 0.0
1.585714 2.275000 0.0
1.628571 2.275000 0.0
1.671429 2.275000 0.0
1.714286 2.275000 0.0
1.757143 2.275000 0.0
1.800000 2.275000 0.0
1.842857 2.275000 0.0
1.885714 2.275000 0.0
1.928571 2.275000 0.0
1.971429 2.275000 0.0
2.014286 2.275000 0.0
2.057143 2.275000 0.0
2.100000 2.275000 0.0
2.142857 2.275000 0.0
2.185714 2.275000 0.0
2.228571 2.275000 0.0
2.271429 2.275000 0.0
2.314286 2.275000 0.0
2.357143 2.275000 0.0
2.400000 2.275000 0.0
2.442857 2.275000 0.0
2.485714 2.275000 0.0
2.528571 2.275000 0.0
2.571429 2.275000 0.0
2.614286 2.275000 0.0
2.657143 2.275000 0.0
2.700000 2.275000 0.0
2.742857 2.275000 0.0
2.785714 2.275000 0.0
2.828571 2.275000 0.0
2.871429 2.275000 0.0
2.914286 2.275000 0.0
2.957143 2.275000 0.0
3.000000 2.275000 0.0
1.500000 2.318750 0.0
1.542857 2.318750 0.0
1.585714 2.318750 0.0
1.628571 2.318750 0.0
1.671429 2.318750 0.0
1.714286 2.318750 0.0
1.757143 2.318750 0.0
1.800000 2.318750 0.0
1.842857 2.318750 0.0
1.885714 2.318750 0.0
1.928571 2.318750 0.0
1.971429 2.318750 0.0
2.014286 2.318750 0.0
2.057143 2.318750 0.0
2.100000 2.318750 0.0
2.142857 2.318750 0.0
2.185714 2.318750 0.0
2.228571 2.318750 0.0
2.271429 2.318750 0.0
2.314286 2.318750 0.0
2.357143 2.318750 0.0
2.400000 2.318750 0.0
2.442857 2.318750 0.0
2.485714 2.318750 0.0
2.528571 2.318750 0.0
2.571429 2.318750 0.0
2.614286 2.318750 0.0
2.657143 2.318750 0.0
2.700000 2.318750 0.0
2.742857 2.318750 0.0
2.785714 2.318750 0.0
2.828571 2.318750 0.0
2.871429 2.318750 0.0
2.914286 2.318750 0.0
2.957143 2.318750 0.0
3.000000 2.318750 0.0
1.500000 2.362500 0.0
1.542857 2.362500 0.0
1.585714 2.362500 0.0
1.628571 2.362500 0.0
1.671429 2.362500 0.0
1.714286 2.362500 0.0
1.757143 2.362500 0.0
1.800000 2.362500 0.0
1.842857 2.362500 0.0
1.885714 2.362500 0.0
1.928571 2.362500 0.0
1.971429 2.362500 0.0
2.014286 2.362500 0.0
2.057143 2.362500 0.0
2.100000 2.362500 0.0
2.142857 2.362500 0.0
2.185714 2.362500 0.0
2.228571 2.362500 0.0
2.271429 2.362500 0.0
2.314286 2.362500 0.0
2.357143 2.362500 0.0
2.400000 2.362500 0.0
2.442857 2.362500 0.0
2.485714 2.362500 0.0
2.528571 2.362500 0.0
2.571429 2.362500 0.0
2.614286 2.362500 0.0
2.657143 2.362500 0.0
2.700000 2.362500 0.0
2.742857 2.362500 0.0
2.785714 2.362500 0.0
2.828571 2.362500 0.0
2.871429 2.362500 0.0
2.914286 2.362500 0.0
2.957143 2.362500 0.0
3.000000 2.362500 0.0
1.500000 2.406250 0.0
1.542857 2.406250 0.0
1.585714 2.406250 0.0
1.628571 2.406250 0.0
1.671429 2.406250 0.0
1.714286 2.406250 0.0
1.757143 2.406250 0.0
1.800000 2.406250 0.0
1.842857 2.406250 0.0
1.885714 2.406250 0.0
1.928571 2.406250 0.0
1.971429 2.406250 0.0
2.014286 2.406250 0.0
2.057143 2.406250 0.0
2.100000 2.406250 0.0
2.142857 2.406250 0.0
2.185714 2.406250 0.0
2.228571 2.406250 0.0
2.271429 2.406250 0.0
2.314286 2.406250 0.0
2.357143 2.406250 0.0
2.400000 2.406250 0.0
2.442857 2.406250 0.0
2.485714 2.406250 0.0
2.528571 2.406250 0.0
2.571429 2.406250 0.0
2.614286 2.406250 0.0
2.657143 2.406250 0.0
2.700000 2.406250 0.0
2.742857 2.406250 0.0
2.785714 2.406250 0.0
2.828571 2.406250 0.0
2.871429 2.406250 0.0
2.914286 2.406250 0.0
2.957143 2.406250 0.0
3.000000 2.406250 0.0
1.500000 2.450000 0.0
1.542857 2.450000 0.0
1.585714 2.450000 0.0
1.628571 2.450000 0.0
1.671429 2.450000 0.0
1.714286 2.450000 0.0
1.757143 2.450000 0.0
1.800000 2.450000 0.0
1.842857 2.450000 0.0
1.885714 2.450000 0.0
1.928571 2.450000 0.0
1.971429 2.450000 0.0
2.014286 2.450000 0.0
2.057143 2.450000 0.0
2.100000 2.450000 0.0
2.142857 2.450000 0.0
2.185714 2.450000 0.0
2.228571 2.450000 0.0
2.271429 2.450000 0.0
2.314286 2.450000 0.0
2.357143 2.450000 0.0
2.400000 2.450000 0.0
2.442857 2.450000 0.0
2.485714 2.450000 0.0
2.528571 2.450000 0.0
2.571429 2.450000 0.0
2.614286 2.450000 0.0
2.657143 2.450000 0.0
2.700000 2.450000 0.0
2.742857 2.450000 0.0
2.785714 2.450000 0.0
2.828571 2.450000 0.0
2.871429 2.450000 0.0
2.914286 2.450000 0.0
2.957143 2.450000 0.0
3.000000 2.450000 0.0
1.500000 2.493750 0.0
1.542857 2.493750 0.0
1.585714 2.493750 0.0
1.628571 2.493750 0.0
1.671429 2.493750 0.0
1.714286 2.493750 0.0
1.757143 2.493750 0.0
1.800000 2.493750 0.0
1.842857 2.493750 0.0
1.885714 2.493750 0.0
1.928571 2.493750 0.0
1.971429 2.493750 0.0
2.014286 2.493750 0.0
2.057143 2.493750 0.0
2.100000 2.493750 0.0
2.142857 2.493750 0.0
2.185714 2.493750 0.0
2.228571 2.493750 0.0
2.271429 2.493750 0.0
2.314286 2.493750 0.0
2.357143 2.493750 0.0
2.400000 2.493750 0.0
2.442857 2.493750 0.0
2.485714 2.493750 0.0
2.528571 2.493750 0.0
2.571429 2.493750 0.0
2.614286 2.493750 0.0
2.657143 2.493750 0.0
2.700000 2.493750 0.0
2.742857 2.493750 0.0
2.785714 2.493750 0.0
2.828571 2.493750 0.0
2.871429 2.493750 0.0
2.914286 2.493750 0.0
2.957143 2.493750 0.0
3.000000 2.493750 0.0
1.500000 2.537500 0.0
1.542857 2.537500 0.0
1.585714 2.537500 0.0
1.628571 2.537500 0.0
1.671429 2.537500 0.0
1.714286 2.537500 0.0
1.757143 2.537500 0.0
1.800000 2.537500 0.0
1.842857 2.537500 0.0
1.885714 2.537500 0.0
1.928571 2.537500 0.0
1.971429 2.537500 0.0
2.014286 2.537500 0.0
2.057143 2.537500 0.0
2.100000 2.537500 0.0
2.142857 2.537500 0.0
2.185714 2.537500 0.0
2.228571 2.537500 0.0
2.271429 2.537500 0.0
2.314286 2.537500 0.0
2.357143 2.537500 0.0
2.400000 2.537500 0.0
2.442857 2.537500 0.0
2.485714 2.537500 0.0
2.528571 2.537500 0.0
2.571429 2.537500 0.0
2.614286 2.537500 0.0
2.657143 2.537500 0.0
2.700000 2.537500 0.0
2.742857 2.537500 0.0
2.785714 2.537500 0.0
2.828571 2.537500 0.0
2.871429 2.537500 0.0
2.914286 2.537500 0.0
2.957143 2.537500 0.0
3.000000 2.537500 0.0
1.500000 2.581250 0.0
1.542857 2.581250 0.0
1.585714 2.581250 0.0
1.628571 2.581250 0.0
1.671429 2.581250 0.0
1.714286 2.581250 0.0
1.757143 2.581250 0.0
1.800000 2.581250 0.0
1.842857 2.581250 0.0
1.885714 2.581250 0.0
1.928571 2.581250 0.0
1.971429 2.581250 0.0
2.014286 2.581250 0.0
2.057143 2.581250 0.0
2.100000 2.581250 0.0
2.142857 2.581250 0.0
2.185714 2.581250 0.0
2.228571 2.581250 0.0
2.271429 2.581250 0.0
2.314286 2.581250 0.0
2.357143 2.581250 0.0
2.400000 2.581250 0.0
2.442857 2.581250 0.0
2.485714 2.581250 0.0
2.528571 2.581250 0.0
2.571429 2.581250 0.0
2.614286 2.581250 0.0
2.657143 2.581250 0.0
2.700000 2.581250 0.0
2.742857 2.581250 0.0
2.785714 2.581250 0.0
2.828571 2.581250 0.0
2.871429 2.581250 0.0
2.914286 2.581250 0.0
2.957143 2.581250 0.0
3.000000 2.581250 0.0
1.500000 2.625000 0.0
1.542857 2.625000 0.0
1.585714 2.625000 0.0
1.628571 2.625000 0.0
1.671429 2.625000 0.0
1.714286 2.625000 0.0
1.757143 2.625000 0.0
1.800000 2.625000 0.0
1.842857 2.625000 0.0
1.885714 2.625000 0.0
1.928571 2.625000 0.0
1.971429 2.625000 0.0
2.014286 2.625000 0.0
2.057143 2.625000 0.0
2.100000 2.625000 0.0
2.142857 2.625000 0.0
2.185714 2.625000 0.0
2.228571 2.625000 0.0
2.271429 2.625000 0.0
2.314286 2.625000 0.0
2.357143 2.625000 0.0
2.400000 2.625000 0.0
2.442857 2.625000 0.0
2.485714 2.625000 0.0
2.528571 2.625000 0.0
2.571429 2.625000 0.0
2.614286 2.625000 0.0
2.657143 2.625000 0.0
2.700000 2.625000 0.0
2.742857 2.625000 0.0
2.785714 2.625000 0.0
2.828571 2.625000 0.0
2.871429 2.625000 0.0
2.914286 2.625000 0.0
2.957143 2.625000 0.0
3.000000 2.625000 0.0
</DataArray></Points>
<PointData>
<DataArray NumberOfComponents="1" format="ascii" type ="Float32" Name="phi">
0.567022
0.560669
0.529589
0.498114
0.467021
0.436821
0.407747
0.380015
0.353896
0.329876
0.308805
0.291496
0.278758
0.271108
0.268434
0.270956
0.279420
0.293711
0.312601
0.335152
0.361387
0.390864
0.422408
0.455169
0.488872
0.523588
0.559253
0.595700
0.632953
0.670773
0.707716
0.736983
0.751882
0.757289
0.758900
0.747761
0.534267
0.529965
0.499961
0.468305
0.436703
0.405639
0.375471
0.346514
0.319044
0.293404
0.270372
0.250953
0.236445
0.227762
0.224778
0.227737
0.237443
0.253876
0.275643
0.301007
0.329367
0.360503
0.393715
0.428192
0.463581
0.499787
0.536713
0.574361
0.612594
0.650464
0.683357
0.702802
0.710015
0.713716
0.715179
0.714951
0.498836
0.497449
0.470347
0.438832
0.406994
0.375341
0.344251
0.314139
0.285347
0.258098
0.232998
0.211223
0.194580
0.184552
0.181150
0.184694
0.196133
0.215124
0.240024
0.268670
0.299771
0.332951
0.367776
0.403698
0.440435
0.477866
0.516022
0.554807
0.593589
0.629126
0.652931
0.662632
0.666605
0.670100
0.671488
0.671204
0.460760
0.462746
0.440183
0.409403
0.377640
0.345718
0.313973
0.282860
0.252840
0.224123
0.197093
0.172826
0.153461
0.141530
0.137554
0.141936
0.156030
0.178558
0.206868
0.238727
0.272579
0.307886
0.344381
0.381731
0.419681
0.458178
0.497429
0.537025
0.574653
0.602456
0.615133
0.619549
0.623013
0.626485
0.627800
0.627457
0.421329
0.426111
0.408473
0.379647
0.348446
0.316529
0.284436
0.252589
0.221506
0.191528
0.162861
0.136160
0.113422
0.098796
0.094009
0.099734
0.117816
0.145296
0.177515
0.212215
0.248341
0.285470
0.323444
0.362075
0.401182
0.440787
0.480831
0.520073
0.551514
0.567518
0.572792
0.575962
0.579399
0.582867
0.584108
0.583711
0.381358
0.387537
0.374060
0.348630
0.318955
0.287472
0.255360
0.223128
0.191235
0.160183
0.130191
0.101452
0.074846
0.056445
0.050478
0.058685
0.083049
0.116575
0.152347
0.189348
0.227261
0.265875
0.305093
0.344819
0.384988
0.425524
0.465646
0.500110
0.519739
0.526232
0.529251
0.532332
0.535780
0.539242
0.540414
0.539965
0.340991
0.347224
0.336592
0.315224
0.288371
0.258194
0.226476
0.194198
0.161842
0.129938
0.098857
0.068610
0.040746
0.022141
0.017154
0.027556
0.055766
0.093052
0.131034
0.169776
0.209183
0.249117
0.289487
0.330244
0.371319
0.412220
0.448835
0.471763
0.479890
0.482773
0.485616
0.488708
0.492172
0.495620
0.496719
0.496219
0.300216
0.305730
0.296796
0.279012
0.255678
0.227980
0.197449
0.165530
0.133075
0.100606
0.068573
0.036854
0.009998
-0.004650
-0.005314
0.007535
0.035485
0.073356
0.113212
0.153598
0.194409
0.235543
0.276957
0.318600
0.360171
0.398507
0.424190
0.433829
0.436590
0.439129
0.441978
0.445087
0.448577
0.452005
0.453021
0.452473
0.258982
0.263471
0.255622
0.240436
0.220270
0.195717
0.167482
0.136756
0.104704
0.072079
0.038797
0.004734
-0.024279
-0.037610
-0.030122
-0.009228
0.020180
0.058376
0.099882
0.141580
0.183450
0.225453
0.267606
0.309761
0.349475
0.377521
0.388520
0.390960
0.392934
0.395478
0.398341
0.401468
0.404993
0.408396
0.409319
0.408726
0.217266
0.220674
0.213727
0.200412
0.182594
0.160891
0.135458
0.106839
0.075976
0.043496
0.008957
-0.026454
-0.058562
-0.071716
-0.054350
-0.023179
0.009929
0.048906
0.091214
0.133576
0.175996
0.218473
0.260990
0.301994
0.332092
0.344169
0.346191
0.347286
0.349262
0.351828
0.354706
0.357851
0.361415
0.364784
0.365609
0.364980
0.175067
0.177484
0.171398
0.159574
0.143467
0.123946
0.101052
0.074764
0.045483
0.013431
-0.020654
-0.054866
-0.087977
-0.098056
-0.072498
-0.034202
0.003300
0.043245
0.085936
0.128625
0.171328
0.214047
0.255991
0.288430
0.301472
0.302441
0.302501
0.303584
0.305589
0.308178
0.311072
0.314236
0.317841
0.321169
0.321894
0.321233
0.132428
0.134045
0.128752
0.118216
0.103467
0.085552
0.064729
0.040425
0.012575
-0.018161
-0.050251
-0.082747
-0.115324
-0.117485
-0.082556
-0.040476
-0.000093
0.040574
0.083398
0.126213
0.169032
0.211551
0.246215
0.261082
0.260695
0.258748
0.258778
0.259881
0.261917
0.264529
0.267438
0.270623
0.274273
0.277552
0.278172
0.277486
0.089425
0.090476
0.085845
0.076463
0.062889
0.046163
0.026819
0.004130
-0.021930
-0.050498
-0.080641
-0.111862
-0.136377
-0.124941
-0.083659
-0.040978
0.000032
0.041019
0.083798
0.126575
0.169241
0.205325
0.222194
0.221569
0.217081
0.215024
0.215052
0.216177
0.218244
0.220879
0.223804
0.227011
0.230711
0.233932
0.234443
0.233740
0.046145
0.046851
0.042721
0.034169
0.021475
0.005678
-0.012482
-0.033436
-0.057287
-0.083646
-0.112489
-0.142163
-0.148912
-0.120346
-0.078871
-0.036893
0.004011
0.044995
0.087499
0.130064
0.166678
0.184545
0.183996
0.178142
0.173481
0.171297
0.171322
0.172472
0.174571
0.177229
0.180169
0.183400
0.187154
0.190311
0.190708
0.189994
0.002143
0.002718
-0.001003
-0.008845
-0.020574
-0.035288
-0.052309
-0.071661
-0.093596
-0.118034
-0.145443
-0.163255
-0.147961
-0.109285
-0.068851
-0.027995
0.012308
0.052838
0.094747
0.131423
0.149114
0.147550
0.140709
0.134751
0.129886
0.127566
0.127590
0.128765
0.130897
0.133579
0.136534
0.139790
0.143603
0.146688
0.146967
0.146247
-0.041962
-0.041432
-0.044814
-0.051915
-0.062591
-0.076197
-0.092232
-0.110454
-0.130939
-0.153723
-0.172005
-0.165298
-0.132907
-0.093945
-0.054334
-0.013975
0.026300
0.066219
0.101011
0.117338
0.113556
0.104444
0.097452
0.091376
0.086301
0.083832
0.083856
0.085057
0.087223
0.089929
0.092900
0.096184
0.100062
0.103068
0.103223
0.102501
-0.085583
-0.085118
-0.088242
-0.094766
-0.104654
-0.117408
-0.132552
-0.149802
-0.169111
-0.184311
-0.179587
-0.151112
-0.113475
-0.075857
-0.037162
0.002550
0.042313
0.075978
0.089800
0.083319
0.070976
0.061348
0.054152
0.047973
0.042696
0.040072
0.040097
0.041322
0.043516
0.046239
0.049218
0.052525
0.056464
0.059378
0.059409
0.058697
-0.129233
-0.128821
-0.131722
-0.137756
-0.146943
-0.158910
-0.173232
-0.189605
-0.199740
-0.191975
-0.165109
-0.129232
-0.092339
-0.055088
-0.017835
0.018431
0.049925
0.064690
0.057056
0.041657
0.029676
0.020854
0.014341
0.008784
0.003807
0.001322
0.001328
0.002395
0.004269
0.006559
0.009052
0.011873
0.015388
0.017923
0.017555
0.016633
-0.172906
-0.172537
-0.175245
-0.180852
-0.189413
-0.200717
-0.213716
-0.218011
-0.203308
-0.173931
-0.139868
-0.105542
-0.070495
-0.033409
0.000999
0.024823
0.036550
0.033449
0.018968
0.003858
-0.007125
-0.014743
-0.020601
-0.025944
-0.030692
-0.033163
-0.033452
-0.032728
-0.031527
-0.030073
-0.028463
-0.026526
-0.023959
-0.022246
-0.023290
-0.024570
-0.216597
-0.216263
-0.218803
-0.224039
-0.232032
-0.239637
-0.237232
-0.216484
-0.183223
-0.147576
-0.112702
-0.079146
-0.045357
-0.011896
0.011339
0.017983
0.013324
0.000481
-0.016443
-0.032051
-0.044546
-0.053057
-0.059211
-0.065032
-0.070050
-0.072844
-0.073422
-0.072857
-0.071970
-0.070888
-0.069645
-0.068068
-0.065972
-0.064720
-0.066088
-0.067522
-0.260306
-0.260001
-0.262390
-0.265732
-0.262467
-0.250010
-0.226428
-0.193657
-0.159041
-0.122905
-0.086487
-0.051561
-0.018653
0.004676
0.011490
0.005693
-0.009391
-0.031096
-0.052668
-0.071009
-0.086083
-0.096115
-0.102662
-0.108520
-0.113704
-0.116727
-0.117356
-0.116774
-0.115859
-0.114746
-0.113473
-0.111856
-0.109738
-0.108447
-0.109802
-0.100332
</DataArray>
<DataArray NumberOfComponents="1" format="ascii" type ="Float32" Name="u">
0.001490
-0.003206
-0.007797
-0.012106
-0.016001
-0.019409
-0.022314
-0.024744
-0.026757
-0.028429
-0.029839
-0.031054
-0.032119
-0.033016
-0.033624
-0.033706
-0.033049
-0.031712
-0.030039
-0.028319
-0.026601
-0.024833
-0.023016
-0.021226
-0.019554
-0.018063
-0.016774
-0.015690
-0.014800
-0.014094
-0.013560
-0.013184
-0.012948
-0.012826
-0.012784
-0.012784
0.000161
-0.003842
-0.007617
-0.011072
-0.014156
-0.016861
-0.019212
-0.021259
-0.023065
-0.024704
-0.026247
-0.027750
-0.029234
-0.030636
-0.031740
-0.032169
-0.031608
-0.030203
-0.028510
-0.026940
-0.025528
-0.024121
-0.022604
-0.020984
-0.019354
-0.017814
-0.016431
-0.015235
-0.014235
-0.013427
-0.012804
-0.012357
-0.012070
-0.011918
-0.011864
-0.011864
-0.000984
-0.004099
-0.006956
-0.009526
-0.011808
-0.013825
-0.015619
-0.017251
-0.018796
-0.020341
-0.021970
-0.023752
-0.025705
-0.027722
-0.029457
-0.030299
-0.029771
-0.028181
-0.026347
-0.024795
-0.023568
-0.022481
-0.021339
-0.020050
-0.018637
-0.017193
-0.015812
-0.014565
-0.013486
-0.012591
-0.011886
-0.011366
-0.011022
-0.010834
-0.010765
-0.010765
-0.001661
-0.003908
-0.005926
-0.007713
-0.009281
-0.010660
-0.011902
-0.013076
-0.014275
-0.015610
-0.017202
-0.019169
-0.021572
-0.024292
-0.026813
-0.028125
-0.027533
-0.025676
-0.023678
-0.022081
-0.020906
-0.019989
-0.019141
-0.018215
-0.017145
-0.015955
-0.014721
-0.013529
-0.012445
-0.011509
-0.010745
-0.010164
-0.009767
-0.009541
-0.009455
-0.009455
-0.001888
-0.003423
-0.004764
-0.005910
-0.006874
-0.007687
-0.008403
-0.009100
-0.009882
-0.010885
-0.012279
-0.014263
-0.017009
-0.020447
-0.023874
-0.025612
-0.024744
-0.022574
-0.020489
-0.018899
-0.017739
-0.016871
-0.016168
-0.015503
-0.014770
-0.013918
-0.012959
-0.011953
-0.010970
-0.010071
-0.009302
-0.008691
-0.008257
-0.007999
-0.007896
-0.007896
-0.001847
-0.002839
-0.003655
-0.004293
-0.004766
-0.005108
-0.005372
-0.005636
-0.006004
-0.006624
-0.007703
-0.009540
-0.012475
-0.016526
-0.020732
-0.022493
-0.021101
-0.018664
-0.016635
-0.015179
-0.014104
-0.013280
-0.012639
-0.012112
-0.011617
-0.011073
-0.010435
-0.009707
-0.008932
-0.008167
-0.007468
-0.006882
-0.006443
-0.006169
-0.006053
-0.006053
-0.001679
-0.002252
-0.002659
-0.002902
-0.003001
-0.002992
-0.002928
-0.002883
-0.002956
-0.003293
-0.004134
-0.005874
-0.009169
-0.013305
-0.016884
-0.018027
-0.016227
-0.013752
-0.011941
-0.010754
-0.009894
-0.009209
-0.008661
-0.008235
-0.007894
-0.007576
-0.007219
-0.006787
-0.006279
-0.005727
-0.005177
-0.004681
-0.004284
-0.004020
-0.003901
-0.003901
-0.001425
-0.001659
-0.001741
-0.001687
-0.001525
-0.001298
-0.001062
-0.000889
-0.000885
-0.001219
-0.002201
-0.004502
-0.008158
-0.010928
-0.011599
-0.011233
-0.010036
-0.007817
-0.006348
-0.005531
-0.005000
-0.004578
-0.004227
-0.003957
-0.003767
-0.003628
-0.003494
-0.003319
-0.003078
-0.002771
-0.002423
-0.002073
-0.001766
-0.001545
-0.001437
-0.001437
-0.001063
-0.001013
-0.000840
-0.000573
-0.000254
0.000067
0.000326
0.000435
0.000257
-0.000456
-0.002195
-0.005437
-0.008021
-0.008090
-0.005709
-0.003111
-0.002729
-0.001023
-0.000052
0.000340
0.000496
0.000585
0.000650
0.000681
0.000665
0.000613
0.000550
0.000508
0.000515
0.000586
0.000718
0.000892
0.001075
0.001224
0.001306
0.001306
-0.000565
-0.000280
0.000087
0.000491
0.000877
0.001188
0.001344
0.001220
0.000619
-0.000837
-0.003521
-0.006174
-0.006323
-0.004155
-0.000289
0.003785
0.005029
0.006221
0.006570
0.006504
0.006300
0.006068
0.005829
0.005577
0.005306
0.005026
0.004755
0.004512
0.004314
0.004177
0.004109
0.004105
0.004149
0.004210
0.004255
0.004255
0.000076
0.000543
0.001042
0.001512
0.001888
0.002098
0.002042
0.001529
0.000291
-0.001853
-0.004218
-0.004630
-0.002880
0.000387
0.004920
0.009472
0.012231
0.013233
0.013091
0.012616
0.012095
0.011587
0.011081
0.010555
0.010014
0.009484
0.008990
0.008544
0.008155
0.007834
0.007589
0.007423
0.007332
0.007301
0.007304
0.007304
0.000841
0.001424
0.001986
0.002456
0.002744
0.002758
0.002406
0.001325
-0.000285
-0.002040
-0.002560
-0.001264
0.001331
0.005229
0.010280
0.015177
0.018701
0.019633
0.019211
0.018449
0.017674
0.016941
0.016213
0.015441
0.014639
0.013858
0.013133
0.012481
0.011906
0.011414
0.011011
0.010701
0.010490
0.010373
0.010334
0.010334
0.001682
0.002306
0.002861
0.003271
0.003369
0.003069
0.002473
0.001271
0.000265
-0.000038
0.000859
0.002753
0.005786
0.010231
0.015827
0.020976
0.024844
0.025516
0.024865
0.023902
0.022933
0.022023
0.021113
0.020117
0.019064
0.018037
0.017086
0.016226
0.015466
0.014809
0.014259
0.013821
0.013502
0.013306
0.013228
0.013228
0.002560
0.003129
0.003600
0.003900
0.003856
0.003472
0.002994
0.002692
0.002681
0.003331
0.004619
0.006807
0.010274
0.015388
0.021562
0.026757
0.030801
0.031001
0.030099
0.028949
0.027813
0.026766
0.025712
0.024497
0.023194
0.021931
0.020759
0.019697
0.018754
0.017935
0.017246
0.016689
0.016271
0.016002
0.015886
0.015886
0.003429
0.003933
0.004338
0.004599
0.004737
0.004840
0.004848
0.005274
0.005777
0.006670
0.008204
0.010740
0.014808
0.020794
0.027554
0.032769
0.036382
0.036034
0.034904
0.033555
0.032252
0.031097
0.029925
0.028467
0.026910
0.025421
0.024046
0.022796
0.021682
0.020714
0.019899
0.019235
0.018727
0.018387
0.018231
0.018231
0.004147
0.004784
0.005332
0.005782
0.006254
0.006791
0.007223
0.007792
0.008546
0.009698
0.011550
0.014581
0.019490
0.026539
0.033772
0.039159
0.041330
0.040527
0.039227
0.037637
0.036136
0.034896
0.033583
0.031815
0.030000
0.028315
0.026770
0.025372
0.024128
0.023051
0.022143
0.021403
0.020826
0.020422
0.020222
0.020222
0.004687
0.005575
0.006378
0.007105
0.007813
0.008498
0.009178
0.009962
0.010971
0.012423
0.014691
0.018416
0.024471
0.032640
0.040057
0.045108
0.045584
0.044382
0.042947
0.040992
0.039222
0.037920
0.036277
0.034129
0.032108
0.030306
0.028678
0.027222
0.025939
0.024833
0.023905
0.023150
0.022555
0.022113
0.021876
0.021876
0.005071
0.006161
0.007164
0.008096
0.008995
0.009871