<VTKFile type="StructuredGrid" version="0.1" byte_order="LittleEndian">
<StructuredGrid WholeExtent="1 71 1 81 0 0">
<Piece Extent="36 71 21 41 0 0">
<PointData></PointData>
<CellData></CellData>
<Points>
<DataArray NumberOfComponents="3" format="ascii" type ="Float32" Name="mesh">
1.500000 0.875000 0.0
1.542857 0.875000 0.0
1.585714 0.875000 0.0
1.628571 0.875000 0.0
1.671429 0.875000 0.0
1.714286 0.875000 0.0
1.757143 0.875000 0.0
1.800000 0.875000 0.0
1.842857 0.875000 0.0
1.885714 0.875000 0.0
1.928571 0.875000 0.0
1.971429 0.875000 0.0
2.014286 0.875000 0.0
2.057143 0.875000 0.0
2.100000 0.875000 0.0
2.142857 0.875000 0.0
2.185714 0.875000 0.0
2.228571 0.875000 0.0
2.271429 0.875000 0.0
2.314286 0.875000 0.0
2.357143 0.875000 0.0
2.400000 0.875000 0.0
2.442857 0.875000 0.0
2.485714 0.875000 0.0
2.528571 0.875000 0.0
2.571429 0.875000 0.0
2.614286 0.875000 0.0
2.657143 0.875000 0.0
2.700000 0.875000 0.0
2.742857 0.875000 0.0
2.785714 0.875000 0.0
2.828571 0.875000 0.0
2.871429 0.875000 0.0
2.914286 0.875000 0.0
2.957143 0.875000 0.0
3.000000 0.875000 0.0
1.500000 0.918750 0.0
1.542857 0.918750 0.0
1.585714 0.918750 0.0
1.628571 0.918750 0.0
1.671429 0.918750 0.0
1.714286 0.918750 0.0
1.757143 0.918750 0.0
1.800000 0.918750 0.0
1.842857 0.918750 0.0
1.885714 0.918750 0.0
1.928571 0.918750 0.0
1.971429 0.918750 0.0
2.014286 0.918750 0.0
2.057143 0.918750 0.0
2.100000 0.918750 0.0
2.142857 0.918750 0.0
2.185714 0.918750 0.0
2.228571 0.918750 0.0
2.271429 0.918750 0.0
2.314286 0.918750 0.0
2.357143 0.918750 0.0
2.400000 0.918750 0.0
2.442857 0.918750 0.0
2.485714 0.918750 0.0
2.528571 0.918750 0.0
2.571429 0.918750 0.0
2.614286 0.918750 0.0
2.657143 0.918750 0.0
2.700000 0.918750 0.0
2.742857 0.918750 0.0
2.785714 0.918750 0.0
2.828571 0.918750 0.0
2.871429 0.918750 0.0
2.914286 0.918750 0.0
2.957143 0.918750 0.0
3.000000 0.918750 0.0
1.500000 0.962500 0.0
1.542857 0.962500 0.0
1.585714 0.962500 0.0
1.628571 0.962500 0.0
1.671429 0.962500 0.0
1.714286 0.962500 0.0
1.757143 0.962500 0.0
1.800000 0.962500 0.0
1.842857 0.962500 0.0
1.885714 0.962500 0.0
1.928571 0.962500 0.0
1.971429 0.962500 0.0
2.014286 0.962500 0.0
2.057143 0.962500 0.0
2.100000 0.962500 0.0
2.142857 0.962500 0.0
2.185714 0.962500 0.0
2.228571 0.962500 0.0
2.271429 0.962500 0.0
2.314286 0.962500 0.0
2.357143 0.962500 0.0
2.400000 0.962500 0.0
2.442857 0.962500 0.0
2.485714 0.962500 0.0
2.528571 0.962500 0.0
2.571429 0.962500 0.0
2.614286 0.962500 0.0
2.657143 0.962500 0.0
2.700000 0.962500 0.0
2.742857 0.962500 0.0
2.785714 0.962500 0.0
2.828571 0.962500 0.0
2.871429 0.962500 0.0
2.914286 0.962500 0.0
2.957143 0.962500 0.0
3.000000 0.962500 0.0
1.500000 1.006250 0.0
1.542857 1.006250 0.0
1.585714 1.006250 0.0
1.628571 1.006250 0.0
1.671429 1.006250 0.0
1.714286 1.006250 0.0
1.757143 1.006250 0.0
1.800000 1.006250 0.0
1.842857 1.006250 0.0
1.885714 1.006250 0.0
1.928571 1.006250 0.0
1.971429 1.006250 0.0
2.014286 1.006250 0.0
2.057143 1.006250 0.0
2.100000 1.006250 0.0
2.142857 1.006250 0.0
2.185714 1.006250 0.0
2.228571 1.006250 0.0
2.271429 1.006250 0.0
2.314286 1.006250 0.0
2.357143 1.006250 0.0
2.400000 1.006250 0.0
2.442857 1.006250 0.0
2.485714 1.006250 0.0
2.528571 1.006250 0.0
2.571429 1.006250 0.0
2.614286 1.006250 0.0
2.657143 1.006250 0.0
2.700000 1.006250 0.0
2.742857 1.006250 0.0
2.785714 1.006250 0.0
2.828571 1.006250 0.0
2.871429 1.006250 0.0
2.914286 1.006250 0.0
2.957143 1.006250 0.0
3.000000 1.006250 0.0
1.500000 1.050000 0.0
1.542857 1.050000 0.0
1.585714 1.050000 0.0
1.628571 1.050000 0.0
1.671429 1.050000 0.0
1.714286 1.050000 0.0
1.757143 1.050000 0.0
1.800000 1.050000 0.0
1.842857 1.050000 0.0
1.885714 1.050000 0.0
1.928571 1.050000 0.0
1.971429 1.050000 0.0
2.014286 1.050000 0.0
2.057143 1.050000 0.0
2.100000 1.050000 0.0
2.142857 1.050000 0.0
2.185714 1.050000 0.0
2.228571 1.050000 0.0
2.271429 1.050000 0.0
2.314286 1.050000 0.0
2.357143 1.050000 0.0
2.400000 1.050000 0.0
2.442857 1.050000 0.0
2.485714 1.050000 0.0
2.528571 1.050000 0.0
2.571429 1.050000 0.0
2.614286 1.050000 0.0
2.657143 1.050000 0.0
2.700000 1.050000 0.0
2.742857 1.050000 0.0
2.785714 1.050000 0.0
2.828571 1.050000 0.0
2.871429 1.050000 0.0
2.914286 1.050000 0.0
2.957143 1.050000 0.0
3.000000 1.050000 0.0
1.500000 1.093750 0.0
1.542857 1.093750 0.0
1.585714 1.093750 0.0
1.628571 1.093750 0.0
1.671429 1.093750 0.0
1.714286 1.093750 0.0
1.757143 1.093750 0.0
1.800000 1.093750 0.0
1.842857 1.093750 0.0
1.885714 1.093750 0.0
1.928571 1.093750 0.0
1.971429 1.093750 0.0
2.014286 1.093750 0.0
2.057143 1.093750 0.0
2.100000 1.093750 0.0
2.142857 1.093750 0.0
2.185714 1.093750 0.0
2.228571 1.093750 0.0
2.271429 1.093750 0.0
2.314286 1.093750 0.0
2.357143 1.093750 0.0
2.400000 1.093750 0.0
2.442857 1.093750 0.0
2.485714 1.093750 0.0
2.528571 1.093750 0.0
2.571429 1.093750 0.0
2.614286 1.093750 0.0
2.657143 1.093750 0.0
2.700000 1.093750 0.0
2.742857 1.093750 0.0
2.785714 1.093750 0.0
2.828571 1.093750 0.0
2.871429 1.093750 0.0
2.914286 1.093750 0.0
2.957143 1.093750 0.0
3.000000 1.093750 0.0
1.500000 1.137500 0.0
1.542857 1.137500 0.0
1.585714 1.137500 0.0
1.628571 1.137500 0.0
1.671429 1.137500 0.0
1.714286 1.137500 0.0
1.757143 1.137500 0.0
1.800000 1.137500 0.0
1.842857 1.137500 0.0
1.885714 1.137500 0.0
1.928571 1.137500 0.0
1.971429 1.137500 0.0
2.014286 1.137500 0.0
2.057143 1.137500 0.0
2.100000 1.137500 0.0
2.142857 1.137500 0.0
2.185714 1.137500 0.0
2.228571 1.137500 0.0
2.271429 1.137500 0.0
2.314286 1.137500 0.0
2.357143 1.137500 0.0
2.400000 1.137500 0.0
2.442857 1.137500 0.0
2.485714 1.137500 0.0
2.528571 1.137500 0.0
2.571429 1.137500 0.0
2.614286 1.137500 0.0
2.657143 1.137500 0.0
2.700000 1.137500 0.0
2.742857 1.137500 0.0
2.785714 1.137500 0.0
2.828571 1.137500 0.0
2.871429 1.137500 0.0
2.914286 1.137500 0.0
2.957143 1.137500 0.0
3.000000 1.137500 0.0
1.500000 1.181250 0.0
1.542857 1.181250 0.0
1.585714 1.181250 0.0
1.628571 1.181250 0.0
1.671429 1.181250 0.0
1.714286 1.181250 0.0
1.757143 1.181250 0.0
1.800000 1.181250 0.0
1.842857 1.181250 0.0
1.885714 1.181250 0.0
1.928571 1.181250 0.0
1.971429 1.181250 0.0
2.014286 1.181250 0.0
2.057143 1.181250 0.0
2.100000 1.181250 0.0
2.142857 1.181250 0.0
2.185714 1.181250 0.0
2.228571 1.181250 0.0
2.271429 1.181250 0.0
2.314286 1.181250 0.0
2.357143 1.181250 0.0
2.400000 1.181250 0.0
2.442857 1.181250 0.0
2.485714 1.181250 0.0
2.528571 1.181250 0.0
2.571429 1.181250 0.0
2.614286 1.181250 0.0
2.657143 1.181250 0.0
2.700000 1.181250 0.0
2.742857 1.181250 0.0
2.785714 1.181250 0.0
2.828571 1.181250 0.0
2.871429 1.181250 0.0
2.914286 1.181250 0.0
2.957143 1.181250 0.0
3.000000 1.181250 0.0
1.500000 1.225000 0.0
1.542857 1.225000 0.0
1.585714 1.225000 0.0
1.628571 1.225000 0.0
1.671429 1.225000 0.0
1.714286 1.225000 0.0
1.757143 1.225000 0.0
1.800000 1.225000 0.0
1.842857 1.225000 0.0
1.885714 1.225000 0.0
1.928571 1.225000 0.0
1.971429 1.225000 0.0
2.014286 1.225000 0.0
2.057143 1.225000 0.0
2.100000 1.225000 0.0
2.142857 1.225000 0.0
2.185714 1.225000 0.0
2.228571 1.225000 0.0
2.271429 1.225000 0.0
2.314286 1.225000 0.0
2.357143 1.225000 0.0
2.400000 1.225000 0.0
2.442857 1.225000 0.0
2.485714 1.225000 0.0
2.528571 1.225000 0.0
2.571429 1.225000 0.0
2.614286 1.225000 0.0
2.657143 1.225000 0.0
2.700000 1.225000 0.0
2.742857 1.225000 0.0
2.785714 1.225000 0.0
2.828571 1.225000 0.0
2.871429 1.225000 0.0
2.914286 1.225000 0.0
2.957143 1.225000 0.0
3.000000 1.225000 0.0
1.500000 1.268750 0.0
1.542857 1.268750 0.0
1.585714 1.268750 0.0
1.628571 1.268750 0.0
1.671429 1.268750 0.0
1.714286 1.268750 0.0
1.757143 1.268750 0.0
1.800000 1.268750 0.0
1.842857 1.268750 0.0
1.885714 1.268750 0.0
1.928571 1.268750 0.0
1.971429 1.268750 0.0
2.014286 1.268750 0.0
2.057143 1.268750 0.0
2.100000 1.268750 0.0
2.142857 1.268750 0.0
2.185714 1.268750 0.0
2.228571 1.268750 0.0
2.271429 1.268750 0.0
2.314286 1.268750 0.0
2.357143 1.268750 0.0
2.400000 1.268750 0.0
2.442857 1.268750 0.0
2.485714 1.268750 0.0
2.528571 1.268750 0.0
2.571429 1.268750 0.0
2.614286 1.268750 0.0
2.657143 1.268750 0.0
2.700000 1.268750 0.0
2.742857 1.268750 0.0
2.785714 1.268750 0.0
2.828571 1.268750 0.0
2.871429 1.268750 0.0
2.914286 1.268750 0.0
2.957143 1.268750 0.0
3.000000 1.268750 0.0
1.500000 1.312500 0.0
1.542857 1.312500 0.0
1.585714 1.312500 0.0
1.628571 1.312500 0.0
1.671429 1.312500 0.0
1.714286 1.312500 0.0
1.757143 1.312500 0.0
1.800000 1.312500 0.0
1.842857 1.312500 0.0
1.885714 1.312500 0.0
1.928571 1.312500 0.0
1.971429 1.312500 0.0
2.014286 1.312500 0.0
2.057143 1.312500 0.0
2.100000 1.312500 0.0
2.142857 1.312500 0.0
2.185714 1.312500 0.0
2.228571 1.312500 0.0
2.271429 1.312500 0.0
2.314286 1.312500 0.0
2.357143 1.312500 0.0
2.400000 1.312500 0.0
2.442857 1.312500 0.0
2.485714 1.312500 0.0
2.528571 1.312500 0.0
2.571429 1.312500 0.0
2.614286 1.312500 0.0
2.657143 1.312500 0.0
2.700000 1.312500 0.0
2.742857 1.312500 0.0
2.785714 1.312500 0.0
2.828571 1.312500 0.0
2.871429 1.312500 0.0
2.914286 1.312500 0.0
2.957143 1.312500 0.0
3.000000 1.312500 0.0
1.500000 1.356250 0.0
1.542857 1.356250 0.0
1.585714 1.356250 0.0
1.628571 1.356250 0.0
1.671429 1.356250 0.0
1.714286 1.356250 0.0
1.757143 1.356250 0.0
1.800000 1.356250 0.0
1.842857 1.356250 0.0
1.885714 1.356250 0.0
1.928571 1.356250 0.0
1.971429 1.356250 0.0
2.014286 1.356250 0.0
2.057143 1.356250 0.0
2.100000 1.356250 0.0
2.142857 1.356250 0.0
2.185714 1.356250 0.0
2.228571 1.356250 0.0
2.271429 1.356250 0.0
2.314286 1.356250 0.0
2.357143 1.356250 0.0
2.400000 1.356250 0.0
2.442857 1.356250 0.0
2.485714 1.356250 0.0
2.528571 1.356250 0.0
2.571429 1.356250 0.0
2.614286 1.356250 0.0
2.657143 1.356250 0.0
2.700000 1.356250 0.0
2.742857 1.356250 0.0
2.785714 1.356250 0.0
2.828571 1.356250 0.0
2.871429 1.356250 0.0
2.914286 1.356250 0.0
2.957143 1.356250 0.0
3.000000 1.356250 0.0
1.500000 1.400000 0.0
1.542857 1.400000 0.0
1.585714 1.400000 0.0
1.628571 1.400000 0.0
1.671429 1.400000 0.0
1.714286 1.400000 0.0
1.757143 1.400000 0.0
1.800000 1.400000 0.0
1.842857 1.400000 0.0
1.885714 1.400000 0.0
1.928571 1.400000 0.0
1.971429 1.400000 0.0
2.014286 1.400000 0.0
2.057143 1.400000 0.0
2.100000 1.400000 0.0
2.142857 1.400000 0.0
2.185714 1.400000 0.0
2.228571 1.400000 0.0
2.271429 1.400000 0.0
2.314286 1.400000 0.0
2.357143 1.400000 0.0
2.400000 1.400000 0.0
2.442857 1.400000 0.0
2.485714 1.400000 0.0
2.528571 1.400000 0.0
2.571429 1.400000 0.0
2.614286 1.400000 0.0
2.657143 1.400000 0.0
2.700000 1.400000 0.0
2.742857 1.400000 0.0
2.785714 1.400000 0.0
2.828571 1.400000 0.0
2.871429 1.400000 0.0
2.914286 1.400000 0.0
2.957143 1.400000 0.0
3.000000 1.400000 0.0
1.500000 1.443750 0.0
1.542857 1.443750 0.0
1.585714 1.443750 0.0
1.628571 1.443750 0.0
1.671429 1.443750 0.0
1.714286 1.443750 0.0
1.757143 1.443750 0.0
1.800000 1.443750 0.0
1.842857 1.443750 0.0
1.885714 1.443750 0.0
1.928571 1.443750 0.0
1.971429 1.443750 0.0
2.014286 1.443750 0.0
2.057143 1.443750 0.0
2.100000 1.443750 0.0
2.142857 1.443750 0.0
2.185714 1.443750 0.0
2.228571 1.443750 0.0
2.271429 1.443750 0.0
2.314286 1.443750 0.0
2.357143 1.443750 0.0
2.400000 1.443750 0.0
2.442857 1.443750 0.0
2.485714 1.443750 0.0
2.528571 1.443750 0.0
2.571429 1.443750 0.0
2.614286 1.443750 0.0
2.657143 1.443750 0.0
2.700000 1.443750 0.0
2.742857 1.443750 0.0
2.785714 1.443750 0.0
2.828571 1.443750 0.0
2.871429 1.443750 0.0
2.914286 1.443750 0.0
2.957143 1.443750 0.0
3.000000 1.443750 0.0
1.500000 1.487500 0.0
1.542857 1.487500 0.0
1.585714 1.487500 0.0
1.628571 1.487500 0.0
1.671429 1.487500 0.0
1.714286 1.487500 0.0
1.757143 1.487500 0.0
1.800000 1.487500 0.0
1.842857 1.487500 0.0
1.885714 1.487500 0.0
1.928571 1.487500 0.0
1.971429 1.487500 0.0
2.014286 1.487500 0.0
2.057143 1.487500 0.0
2.100000 1.487500 0.0
2.142857 1.487500 0.0
2.185714 1.487500 0.0
2.228571 1.487500 0.0
2.271429 1.487500 0.0
2.314286 1.487500 0.0
2.357143 1.487500 0.0
2.400000 1.487500 0.0
2.442857 1.487500 0.0
2.485714 1.487500 0.0
2.528571 1.487500 0.0
2.571429 1.487500 0.0
2.614286 1.487500 0.0
2.657143 1.487500 0.0
2.700000 1.487500 0.0
2.742857 1.487500 0.0
2.785714 1.487500 0.0
2.828571 1.487500 0.0
2.871429 1.487500 0.0
2.914286 1.487500 0.0
2.957143 1.487500 0.0
3.000000 1.487500 0.0
1.500000 1.531250 0.0
1.542857 1.531250 0.0
1.585714 1.531250 0.0
1.628571 1.531250 0.0
1.671429 1.531250 0.0
1.714286 1.531250 0.0
1.757143 1.531250 0.0
1.800000 1.531250 0.0
1.842857 1.531250 0.0
1.885714 1.531250 0.0
1.928571 1.531250 0.0
1.971429 1.531250 0.0
2.014286 1.531250 0.0
2.057143 1.531250 0.0
2.100000 1.531250 0.0
2.142857 1.531250 0.0
2.185714 1.531250 0.0
2.228571 1.531250 0.0
2.271429 1.531250 0.0
2.314286 1.531250 0.0
2.357143 1.531250 0.0
2.400000 1.531250 0.0
2.442857 1.531250 0.0
2.485714 1.531250 0.0
2.528571 1.531250 0.0
2.571429 1.531250 0.0
2.614286 1.531250 0.0
2.657143 1.531250 0.0
2.700000 1.531250 0.0
2.742857 1.531250 0.0
2.785714 1.531250 0.0
2.828571 1.531250 0.0
2.871429 1.531250 0.0
2.914286 1.531250 0.0
2.957143 1.531250 0.0
3.000000 1.531250 0.0
1.500000 1.575000 0.0
1.542857 1.575000 0.0
1.585714 1.575000 0.0
1.628571 1.575000 0.0
1.671429 1.575000 0.0
1.714286 1.575000 0.0
1.757143 1.575000 0.0
1.800000 1.575000 0.0
1.842857 1.575000 0.0
1.885714 1.575000 0.0
1.928571 1.575000 0.0
1.971429 1.575000 0.0
2.014286 1.575000 0.0
2.057143 1.575000 0.0
2.100000 1.575000 0.0
2.142857 1.575000 0.0
2.185714 1.575000 0.0
2.228571 1.575000 0.0
2.271429 1.575000 0.0
2.314286 1.575000 0.0
2.357143 1.575000 0.0
2.400000 1.575000 0.0
2.442857 1.575000 0.0
2.485714 1.575000 0.0
2.528571 1.575000 0.0
2.571429 1.575000 0.0
2.614286 1.575000 0.0
2.657143 1.575000 0.0
2.700000 1.575000 0.0
2.742857 1.575000 0.0
2.785714 1.575000 0.0
2.828571 1.575000 0.0
2.871429 1.575000 0.0
2.914286 1.575000 0.0
2.957143 1.575000 0.0
3.000000 1.575000 0.0
1.500000 1.618750 0.0
1.542857 1.618750 0.0
1.585714 1.618750 0.0
1.628571 1.618750 0.0
1.671429 1.618750 0.0
1.714286 1.618750 0.0
1.757143 1.618750 0.0
1.800000 1.618750 0.0
1.842857 1.618750 0.0
1.885714 1.618750 0.0
1.928571 1.618750 0.0
1.971429 1.618750 0.0
2.014286 1.618750 0.0
2.057143 1.618750 0.0
2.100000 1.618750 0.0
2.142857 1.618750 0.0
2.185714 1.618750 0.0
2.228571 1.618750 0.0
2.271429 1.618750 0.0
2.314286 1.618750 0.0
2.357143 1.618750 0.0
2.400000 1.618750 0.0
2.442857 1.618750 0.0
2.485714 1.618750 0.0
2.528571 1.618750 0.0
2.571429 1.618750 0.0
2.614286 1.618750 0.0
2.657143 1.618750 0.0
2.700000 1.618750 0.0
2.742857 1.618750 0.0
2.785714 1.618750 0.0
2.828571 1.618750 0.0
2.871429 1.618750 0.0
2.914286 1.618750 0.0
2.957143 1.618750 0.0
3.000000 1.618750 0.0
1.500000 1.662500 0.0
1.542857 1.662500 0.0
1.585714 1.662500 0.0
1.628571 1.662500 0.0
1.671429 1.662500 0.0
1.714286 1.662500 0.0
1.757143 1.662500 0.0
1.800000 1.662500 0.0
1.842857 1.662500 0.0
1.885714 1.662500 0.0
1.928571 1.662500 0.0
1.971429 1.662500 0.0
2.014286 1.662500 0.0
2.057143 1.662500 0.0
2.100000 1.662500 0.0
2.142857 1.662500 0.0
2.185714 1.662500 0.0
2.228571 1.662500 0.0
2.271429 1.662500 0.0
2.314286 1.662500 0.0
2.357143 1.662500 0.0
2.400000 1.662500 0.0
2.442857 1.662500 0.0
2.485714 1.662500 0.0
2.528571 1.662500 0.0
2.571429 1.662500 0.0
2.614286 1.662500 0.0
2.657143 1.662500 0.0
2.700000 1.662500 0.0
2.742857 1.662500 0.0
2.785714 1.662500 0.0
2.828571 1.662500 0.0
2.871429 1.662500 0.0
2.914286 1.662500 0.0
2.957143 1.662500 0.0
3.000000 1.662500 0.0
1.500000 1.706250 0.0
1.542857 1.706250 0.0
1.585714 1.706250 0.0
1.628571 1.706250 0.0
1.671429 1.706250 0.0
1.714286 1.706250 0.0
1.757143 1.706250 0.0
1.800000 1.706250 0.0
1.842857 1.706250 0.0
1.885714 1.706250 0.0
1.928571 1.706250 0.0
1.971429 1.706250 0.0
2.014286 1.706250 0.0
2.057143 1.706250 0.0
2.100000 1.706250 0.0
2.142857 1.706250 0.0
2.185714 1.706250 0.0
2.228571 1.706250 0.0
2.271429 1.706250 0.0
2.314286 1.706250 0.0
2.357143 1.706250 0.0
2.400000 1.706250 0.0
2.442857 1.706250 0.0
2.485714 1.706250 0.0
2.528571 1.706250 0.0
2.571429 1.706250 0.0
2.614286 1.706250 0.0
2.657143 1.706250 0.0
2.700000 1.706250 0.0
2.742857 1.706250 0.0
2.785714 1.706250 0.0
2.828571 1.706250 0.0
2.871429 1.706250 0.0
2.914286 1.706250 0.0
2.957143 1.706250 0.0
3.000000 1.706250 0.0
1.500000 1.750000 0.0
1.542857 1.750000 0.0
1.585714 1.750000 0.0
1.628571 1.750000 0.0
1.671429 1.750000 0.0
1.714286 1.750000 0.0
1.757143 1.750000 0.0
1.800000 1.750000 0.0
1.842857 1.750000 0.0
1.885714 1.750000 0.0
1.928571 1.750000 0.0
1.971429 1.750000 0.0
2.014286 1.750000 0.0
2.057143 1.750000 0.0
2.100000 1.750000 0.0
2.142857 1.750000 0.0
2.185714 1.750000 0.0
2.228571 1.750000 0.0
2.271429 1.750000 0.0
2.314286 1.750000 0.0
2.357143 1.750000 0.0
2.400000 1.750000 0.0
2.442857 1.750000 0.0
2.485714 1.750000 0.0
2.528571 1.750000 0.0
2.571429 1.750000 0.0
2.614286 1.750000 0.0
2.657143 1.750000 0.0
2.700000 1.750000 0.0
2.742857 1.750000 0.0
2.785714 1.750000 0.0
2.828571 1.750000 0.0
2.871429 1.750000 0.0
2.914286 1.750000 0.0
2.957143 1.750000 0.0
3.000000 1.750000 0.0
</DataArray></Points>
<PointData>
<DataArray NumberOfComponents="1" format="ascii" type ="Float32" Name="phi">
0.183789
0.185549
0.190275
0.197251
0.206231
0.217676
0.231800
0.248315
0.266597
0.286348
0.307594
0.330445
0.355049
0.381350
0.408997
0.437768
0.467663
0.498566
0.530278
0.562712
0.595847
0.629658
0.664131
0.699237
0.734852
0.770829
0.807106
0.843704
0.880716
0.918146
0.955849
0.993715
1.031735
1.070020
1.108651
1.123345
0.140082
0.141967
0.146978
0.154280
0.163786
0.176068
0.191150
0.208548
0.227609
0.248170
0.270380
0.294414
0.320296
0.347841
0.376674
0.406491
0.437261
0.469020
0.501681
0.535127
0.569262
0.603959
0.639151
0.674863
0.711116
0.747797
0.784763
0.821959
0.859427
0.897279
0.935507
0.973958
1.012538
1.051262
1.090224
1.109780
0.096375
0.098398
0.103713
0.111355
0.121521
0.134808
0.150891
0.169173
0.189026
0.210494
0.233897
0.259380
0.286647
0.315343
0.345267
0.376197
0.408018
0.440751
0.474345
0.508698
0.543741
0.579330
0.615326
0.651688
0.688475
0.725730
0.763344
0.801187
0.839218
0.877500
0.916152
0.955133
0.994294
1.033568
1.072974
1.092717
0.052645
0.054823
0.060467
0.068452
0.079448
0.093929
0.111042
0.130201
0.150883
0.173486
0.198438
0.225524
0.254147
0.283973
0.314934
0.346964
0.379954
0.413819
0.448417
0.483623
0.519428
0.555785
0.592556
0.629636
0.667013
0.704765
0.742932
0.781405
0.820071
0.858905
0.897990
0.937417
0.977111
1.016951
1.056901
1.076904
0.009975
0.012318
0.018349
0.026816
0.038274
0.053466
0.071604
0.091608
0.113247
0.137492
0.164322
0.192913
0.222773
0.253783
0.285912
0.319124
0.353278
0.388221
0.423803
0.459880
0.496410
0.533422
0.570879
0.608668
0.646719
0.685042
0.723716
0.762755
0.802052
0.841522
0.881164
0.921059
0.961222
1.001563
1.042030
1.062292
-0.032630
-0.029996
-0.023314
-0.013919
-0.001671
0.014373
0.033120
0.053324
0.076401
0.102983
0.131633
0.161526
0.192601
0.224919
0.258421
0.292910
0.328157
0.364039
0.400485
0.437385
0.474666
0.512333
0.550418
0.588880
0.627635
0.666638
0.705911
0.745510
0.785396
0.825478
0.865726
0.906161
0.946788
0.987568
1.028470
1.048947
-0.076232
-0.073262
-0.065871
-0.055307
-0.041375
-0.023699
-0.003929
0.017338
0.042089
0.070300
0.100234
0.131352
0.163882
0.197758
0.232659
0.268310
0.304536
0.341273
0.378498
0.416167
0.454215
0.492611
0.531377
0.570519
0.609982
0.649708
0.689680
0.729909
0.770367
0.810994
0.851773
0.892704
0.933769
0.974943
1.016210
1.036865
-0.119794
-0.116550
-0.108514
-0.096730
-0.081041
-0.061782
-0.040135
-0.016171
0.010632
0.039390
0.069988
0.102769
0.137153
0.172574
0.208647
0.245255
0.282355
0.319919
0.357929
0.396383
0.435242
0.474460
0.514029
0.553935
0.594126
0.634550
0.675187
0.716015
0.756997
0.798100
0.839314
0.880643
0.922069
0.963575
1.005151
1.025955
-0.163316
-0.159736
-0.150834
-0.137614
-0.120195
-0.099289
-0.075519
-0.048823
-0.019582
0.010834
0.042415
0.076603
0.112679
0.149222
0.186214
0.223687
0.261660
0.300124
0.339052
0.378427
0.418204
0.458315
0.498724
0.539386
0.580249
0.621277
0.662452
0.703757
0.745166
0.786658
0.828228
0.869878
0.911599
0.953379
0.995213
1.016141
-0.206793
-0.202777
-0.192723
-0.177817
-0.158494
-0.135502
-0.109201
-0.079880
-0.048288
-0.015266
0.018113
0.053076
0.089986
0.127352
0.165276
0.203780
0.242860
0.282457
0.322481
0.362868
0.403553
0.444474
0.485585
0.526851
0.568241
0.609736
0.651327
0.693002
0.734745
0.776546
0.818400
0.860311
0.902272
0.944278
0.986324
1.007356
-0.250197
-0.245585
-0.234019
-0.217047
-0.195359
-0.169671
-0.140485
-0.108503
-0.074528
-0.039215
-0.003563
0.031779
0.068583
0.107305
0.146651
0.186553
0.226929
0.267673
0.308689
0.349910
0.391289
0.432796
0.474412
0.516115
0.557892
0.599735
0.641638
0.683596
0.725601
0.767646
0.809728
0.851851
0.894011
0.936206
0.978433
0.999553
-0.293461
-0.288008
-0.274413
-0.254751
-0.229966
-0.200966
-0.168656
-0.133989
-0.097754
-0.060498
-0.022707
0.013261
0.050388
0.090848
0.131706
0.172875
0.214259
0.255800
0.297461
0.339218
0.381052
0.422953
0.464914
0.506927
0.548984
0.591084
0.633226
0.675408
0.717622
0.759866
0.802138
0.844440
0.886771
0.929130
0.971513
0.992710
-0.336437
-0.329744
-0.313238
-0.289884
-0.261137
-0.228434
-0.193114
-0.156186
-0.118279
-0.079785
-0.040951
-0.002671
0.036967
0.078654
0.120422
0.162286
0.204219
0.246207
0.288243
0.330327
0.372453
0.414622
0.456830
0.499072
0.541346
0.583651
0.625990
0.668358
0.710751
0.753166
0.795602
0.838061
0.880543
0.923048
0.965573
0.986839
-0.378697
-0.370038
-0.349173
-0.320997
-0.287912
-0.251868
-0.214238
-0.175772
-0.136785
-0.097445
-0.057895
-0.016139
0.027123
0.069495
0.111641
0.153824
0.196035
0.238277
0.280554
0.322866
0.365213
0.407594
0.450005
0.492445
0.534909
0.577399
0.619914
0.662453
0.705010
0.747583
0.790173
0.832778
0.875400
0.918054
0.960700
0.982006
-0.418914
-0.407201
-0.380271
-0.346784
-0.309814
-0.271100
-0.231453
-0.191175
-0.150387
-0.109195
-0.067742
-0.024165
0.019682
0.061907
0.104298
0.146728
0.189188
0.231681
0.274204
0.316755
0.359332
0.401934
0.444558
0.487202
0.529863
0.572539
0.615230
0.657936
0.700654
0.743381
0.786116
0.828860
0.871613
0.914369
0.956280
0.976812
-0.453031
-0.436853
-0.401962
-0.362837
-0.322105
-0.280724
-0.238954
-0.196843
-0.154425
-0.111781
-0.069019
-0.026261
0.015122
0.056518
0.099245
0.141960
0.184690
0.227436
0.270194
0.312964
0.355743
0.398532
0.441328
0.484133
0.526943
0.569758
0.612577
0.655400
0.698227
0.741056
0.783888
0.826722
0.869549
0.911542
0.945927
0.959729
-0.460391
-0.443352
-0.406244
-0.365057
-0.322673
-0.280042
-0.237341
-0.194620
-0.151896
-0.109174
-0.066418
-0.024855
0.014822
0.055748
0.098535
0.141289
0.184061
0.226848
0.269648
0.312456
0.355271
0.398090
0.440914
0.483742
0.526574
0.569411
0.612249
0.655089
0.697929
0.740771
0.783613
0.826459
0.868375
0.902438
0.920039
0.924068
-0.434713
-0.422015
-0.391998
-0.355552
-0.316034
-0.275065
-0.233256
-0.190957
-0.148426
-0.105799
-0.063084
-0.021121
0.019299
0.060355
0.102787
0.145239
0.187737
0.230275
0.272849
0.315457
0.358089
0.400742
0.443412
0.486102
0.528810
0.571533
0.614268
0.657012
0.699764
0.742522
0.785287
0.826847
0.859962
0.876642
0.880475
0.880566
-0.395853
-0.387062
-0.364774
-0.335095
-0.300566
-0.263165
-0.224008
-0.183691
-0.142600
-0.100988
-0.059045
-0.015777
0.026941
0.068405
0.110401
0.152467
0.194599
0.236792
0.279044
0.321350
0.363701
0.406090
0.448513
0.490972
0.533466
0.575988
0.618535
0.661105
0.703690
0.746286
0.787138
0.818546
0.833584
0.836814
0.836840
0.836816
-0.354036
-0.347325
-0.329891
-0.305522
-0.275641
-0.242048
-0.206140
-0.168684
-0.130046
-0.090399
-0.049924
-0.006723
0.036768
0.078241
0.119830
0.161518
0.203296
0.245152
0.287084
0.329088
0.371152
0.413267
0.455430
0.497645
0.539906
0.582207
0.624540
0.666905
0.709384
0.749200
0.778065
0.790786
0.793176
0.793148
0.793090
0.793066
-0.311361
-0.305841
-0.291534
-0.271277
-0.245535
-0.215396
-0.182262
-0.147168
-0.110741
-0.073265
-0.033679
0.008416
0.050088
0.090617
0.131465
0.172559
0.213832
0.255248
0.296788
0.338435
0.380165
0.421967
0.463840
0.505784
0.547790
0.589846
0.631962
0.674227
0.712554
0.738201
0.748144
0.749548
0.749474
0.749399
0.749341
0.760254
</DataArray>
<DataArray NumberOfComponents="1" format="ascii" type ="Float32" Name="u">
0.000388
-0.001828
-0.003988
-0.005982
-0.007714
-0.009130
-0.010216
-0.010979
-0.011451
-0.011671
-0.011684
-0.011528
-0.011244
-0.010867
-0.010429
-0.009958
-0.009479
-0.009008
-0.008559
-0.008139
-0.007752
-0.007400
-0.007083
-0.006799
-0.006548
-0.006328
-0.006135
-0.005970
-0.005830
-0.005714
-0.005621
-0.005549
-0.005498
-0.005466
-0.005450
-0.005450
0.000492
-0.002177
-0.004773
-0.007142
-0.009151
-0.010746
-0.011907
-0.012650
-0.013027
-0.013103
-0.012948
-0.012620
-0.012166
-0.011627
-0.011040
-0.010437
-0.009843
-0.009275
-0.008745
-0.008259
-0.007818
-0.007423
-0.007071
-0.006759
-0.006486
-0.006247
-0.006040
-0.005864
-0.005715
-0.005593
-0.005495
-0.005422
-0.005371
-0.005343
-0.005334
-0.005334
0.000455
-0.002545
-0.005472
-0.008186
-0.010480
-0.012301
-0.013609
-0.014383
-0.014688
-0.014616
-0.014274
-0.013749
-0.013102
-0.012381
-0.011629
-0.010882
-0.010165
-0.009496
-0.008885
-0.008333
-0.007841
-0.007405
-0.007021
-0.006684
-0.006391
-0.006136
-0.005917
-0.005731
-0.005575
-0.005447
-0.005345
-0.005269
-0.005217
-0.005186
-0.005173
-0.005173
0.000157
-0.002718
-0.005672
-0.008647
-0.011119
-0.013237
-0.014895
-0.015894
-0.016270
-0.016122
-0.015614
-0.014885
-0.014028
-0.013108
-0.012175
-0.011273
-0.010428
-0.009658
-0.008966
-0.008353
-0.007814
-0.007341
-0.006929
-0.006570
-0.006260
-0.005992
-0.005763
-0.005569
-0.005407
-0.005274
-0.005169
-0.005090
-0.005035
-0.005002
-0.004987
-0.004987
-0.000344
-0.002517
-0.004909
-0.007593
-0.010055
-0.012706
-0.015092
-0.016681
-0.017461
-0.017469
-0.016896
-0.015990
-0.014917
-0.013781
-0.012655
-0.011590
-0.010616
-0.009745
-0.008979
-0.008310
-0.007729
-0.007225
-0.006790
-0.006414
-0.006090
-0.005812
-0.005576
-0.005376
-0.005210
-0.005074
-0.004967
-0.004886
-0.004829
-0.004794
-0.004777
-0.004777
-0.000660
-0.001903
-0.003202
-0.004807
-0.007093
-0.010070
-0.013195
-0.016007
-0.017712
-0.018341
-0.017977
-0.016999
-0.015732
-0.014374
-0.013045
-0.011813
-0.010710
-0.009746
-0.008912
-0.008195
-0.007579
-0.007052
-0.006599
-0.006211
-0.005879
-0.005595
-0.005355
-0.005152
-0.004984
-0.004847
-0.004739
-0.004657
-0.004599
-0.004563
-0.004546
-0.004546
-0.000601
-0.001145
-0.001653
-0.002365
-0.003997
-0.006166
-0.009163
-0.013024
-0.016280
-0.018166
-0.018542
-0.017771
-0.016407
-0.014849
-0.013317
-0.011920
-0.010695
-0.009646
-0.008755
-0.008000
-0.007360
-0.006816
-0.006353
-0.005959
-0.005624
-0.005339
-0.005098
-0.004896
-0.004728
-0.004592
-0.004484
-0.004402
-0.004344
-0.004309
-0.004291
-0.004291
-0.000414
-0.000604
-0.000836
-0.001203
-0.002020
-0.003154
-0.005171
-0.008319
-0.012652
-0.016321
-0.018065
-0.018014
-0.016809
-0.015143
-0.013438
-0.011889
-0.010554
-0.009433
-0.008498
-0.007718
-0.007065
-0.006515
-0.006050
-0.005657
-0.005323
-0.005042
-0.004804
-0.004606
-0.004442
-0.004308
-0.004203
-0.004123
-0.004066
-0.004031
-0.004014
-0.004014
-0.000266
-0.000296
-0.000369
-0.000523
-0.000898
-0.001558
-0.002662
-0.004445
-0.007859
-0.012523
-0.016186
-0.017346
-0.016701
-0.015138
-0.013350
-0.011688
-0.010267
-0.009094
-0.008133
-0.007343
-0.006689
-0.006143
-0.005686
-0.005301
-0.004977
-0.004703
-0.004474
-0.004283
-0.004125
-0.003997
-0.003896
-0.003819
-0.003765
-0.003731
-0.003715
-0.003715
-0.000169
-0.000128
-0.000115
-0.000146
-0.000288
-0.000614
-0.001213
-0.002295
-0.004196
-0.007849
-0.012851
-0.015515
-0.015809
-0.014649
-0.012954
-0.011266
-0.009806
-0.008611
-0.007647
-0.006866
-0.006227
-0.005699
-0.005259
-0.004891
-0.004582
-0.004323
-0.004107
-0.003927
-0.003779
-0.003659
-0.003564
-0.003492
-0.003441
-0.003410
-0.003394
-0.003394
-0.000104
-0.000038
0.000016
0.000049
0.000031
-0.000092
-0.000391
-0.001020
-0.002192
-0.004362
-0.008519
-0.012734
-0.014001
-0.013501
-0.012125
-0.010548
-0.009127
-0.007960
-0.007027
-0.006280
-0.005674
-0.005177
-0.004766
-0.004425
-0.004139
-0.003902
-0.003703
-0.003539
-0.003404
-0.003295
-0.003209
-0.003143
-0.003097
-0.003067
-0.003053
-0.003053
-0.000058
0.000010
0.000077
0.000138
0.000181
0.000172
0.000057
-0.000273
-0.000971
-0.002318
-0.004754
-0.009416
-0.011429
-0.011684
-0.010773
-0.009449
-0.008177
-0.007111
-0.006257
-0.005575
-0.005025
-0.004576
-0.004207
-0.003902
-0.003649
-0.003439
-0.003264
-0.003120
-0.003002
-0.002906
-0.002831
-0.002773
-0.002732
-0.002707
-0.002694
-0.002694
-0.000023
0.000037
0.000100
0.000165
0.000230
0.000277
0.000272
0.000147
-0.000198
-0.000936
-0.002383
-0.005738
-0.008578
-0.009418
-0.008907
-0.007920
-0.006910
-0.006036
-0.005319
-0.004741
-0.004273
-0.003893
-0.003581
-0.003325
-0.003113
-0.002937
-0.002792
-0.002673
-0.002575
-0.002496
-0.002433
-0.002386
-0.002351
-0.002329
-0.002318
-0.002318
0.000004
0.000049
0.000099
0.000155
0.000215
0.000275
0.000318
0.000313
0.000210
-0.000083
-0.000767
-0.002385
-0.006017
-0.006861
-0.006560
-0.005954
-0.005311
-0.004717
-0.004203
-0.003772
-0.003418
-0.003128
-0.002889
-0.002693
-0.002532
-0.002399
-0.002290
-0.002200
-0.002126
-0.002066
-0.002019
-0.001982
-0.001956
-0.001938
-0.001929
-0.001929
0.000023
0.000053
0.000087
0.000124
0.000163
0.000202
0.000233
0.000244
0.000221
0.000149
-0.000012
-0.000525
-0.003638
-0.003913
-0.003756
-0.003592
-0.003397
-0.003159
-0.002907
-0.002670
-0.002461
-0.002284
-0.002136
-0.002014
-0.001913
-0.001830
-0.001762
-0.001706
-0.001659
-0.001622
-0.001591
-0.001567
-0.001549
-0.001537
-0.001530
-0.001530
0.000037
0.000055
0.000074
0.000091
0.000103
0.000104
0.000085
0.000033
-0.000062
-0.000190
-0.000291
-0.000274
-0.001011
-0.000639
-0.000687
-0.000987
-0.001259
-0.001411
-0.001460
-0.001451
-0.001415
-0.001372
-0.001330
-0.001293
-0.001262
-0.001235
-0.001214
-0.001195
-0.001180
-0.001167
-0.001155
-0.001145
-0.001136
-0.001128
-0.001124
-0.001124
0.000050
0.000061
0.000070
0.000072
0.000063
0.000035
-0.000026
-0.000138
-0.000320
-0.000568
-0.000790
-0.000547
0.001891
0.002624
0.002289
0.001591
0.000924
0.000418
0.000071
-0.000157
-0.000309