<VTKFile type="StructuredGrid" version="0.1" byte_order="LittleEndian">
<StructuredGrid WholeExtent="1 71 1 81 0 0">
<Piece Extent="1 36 21 41 0 0">
<PointData></PointData>
<CellData></CellData>
<Points>
<DataArray NumberOfComponents="3" format="ascii" type ="Float32" Name="mesh">
0.000000 0.875000 0.0
0.042857 0.875000 0.0
0.085714 0.875000 0.0
0.128571 0.875000 0.0
0.171429 0.875000 0.0
0.214286 0.875000 0.0
0.257143 0.875000 0.0
0.300000 0.875000 0.0
0.342857 0.875000 0.0
0.385714 0.875000 0.0
0.428571 0.875000 0.0
0.471429 0.875000 0.0
0.514286 0.875000 0.0
0.557143 0.875000 0.0
0.600000 0.875000 0.0
0.642857 0.875000 0.0
0.685714 0.875000 0.0
0.728571 0.875000 0.0
0.771429 0.875000 0.0
0.814286 0.875000 0.0
0.857143 0.875000 0.0
0.900000 0.875000 0.0
0.942857 0.875000 0.0
0.985714 0.875000 0.0
1.028571 0.875000 0.0
1.071429 0.875000 0.0
1.114286 0.875000 0.0
1.157143 0.875000 0.0
1.200000 0.875000 0.0
1.242857 0.875000 0.0
1.285714 0.875000 0.0
1.328571 0.875000 0.0
1.371429 0.875000 0.0
1.414286 0.875000 0.0
1.457143 0.875000 0.0
1.500000 0.875000 0.0
0.000000 0.918750 0.0
0.042857 0.918750 0.0
0.085714 0.918750 0.0
0.128571 0.918750 0.0
0.171429 0.918750 0.0
0.214286 0.918750 0.0
0.257143 0.918750 0.0
0.300000 0.918750 0.0
0.342857 0.918750 0.0
0.385714 0.918750 0.0
0.428571 0.918750 0.0
0.471429 0.918750 0.0
0.514286 0.918750 0.0
0.557143 0.918750 0.0
0.600000 0.918750 0.0
0.642857 0.918750 0.0
0.685714 0.918750 0.0
0.728571 0.918750 0.0
0.771429 0.918750 0.0
0.814286 0.918750 0.0
0.857143 0.918750 0.0
0.900000 0.918750 0.0
0.942857 0.918750 0.0
0.985714 0.918750 0.0
1.028571 0.918750 0.0
1.071429 0.918750 0.0
1.114286 0.918750 0.0
1.157143 0.918750 0.0
1.200000 0.918750 0.0
1.242857 0.918750 0.0
1.285714 0.918750 0.0
1.328571 0.918750 0.0
1.371429 0.918750 0.0
1.414286 0.918750 0.0
1.457143 0.918750 0.0
1.500000 0.918750 0.0
0.000000 0.962500 0.0
0.042857 0.962500 0.0
0.085714 0.962500 0.0
0.128571 0.962500 0.0
0.171429 0.962500 0.0
0.214286 0.962500 0.0
0.257143 0.962500 0.0
0.300000 0.962500 0.0
0.342857 0.962500 0.0
0.385714 0.962500 0.0
0.428571 0.962500 0.0
0.471429 0.962500 0.0
0.514286 0.962500 0.0
0.557143 0.962500 0.0
0.600000 0.962500 0.0
0.642857 0.962500 0.0
0.685714 0.962500 0.0
0.728571 0.962500 0.0
0.771429 0.962500 0.0
0.814286 0.962500 0.0
0.857143 0.962500 0.0
0.900000 0.962500 0.0
0.942857 0.962500 0.0
0.985714 0.962500 0.0
1.028571 0.962500 0.0
1.071429 0.962500 0.0
1.114286 0.962500 0.0
1.157143 0.962500 0.0
1.200000 0.962500 0.0
1.242857 0.962500 0.0
1.285714 0.962500 0.0
1.328571 0.962500 0.0
1.371429 0.962500 0.0
1.414286 0.962500 0.0
1.457143 0.962500 0.0
1.500000 0.962500 0.0
0.000000 1.006250 0.0
0.042857 1.006250 0.0
0.085714 1.006250 0.0
0.128571 1.006250 0.0
0.171429 1.006250 0.0
0.214286 1.006250 0.0
0.257143 1.006250 0.0
0.300000 1.006250 0.0
0.342857 1.006250 0.0
0.385714 1.006250 0.0
0.428571 1.006250 0.0
0.471429 1.006250 0.0
0.514286 1.006250 0.0
0.557143 1.006250 0.0
0.600000 1.006250 0.0
0.642857 1.006250 0.0
0.685714 1.006250 0.0
0.728571 1.006250 0.0
0.771429 1.006250 0.0
0.814286 1.006250 0.0
0.857143 1.006250 0.0
0.900000 1.006250 0.0
0.942857 1.006250 0.0
0.985714 1.006250 0.0
1.028571 1.006250 0.0
1.071429 1.006250 0.0
1.114286 1.006250 0.0
1.157143 1.006250 0.0
1.200000 1.006250 0.0
1.242857 1.006250 0.0
1.285714 1.006250 0.0
1.328571 1.006250 0.0
1.371429 1.006250 0.0
1.414286 1.006250 0.0
1.457143 1.006250 0.0
1.500000 1.006250 0.0
0.000000 1.050000 0.0
0.042857 1.050000 0.0
0.085714 1.050000 0.0
0.128571 1.050000 0.0
0.171429 1.050000 0.0
0.214286 1.050000 0.0
0.257143 1.050000 0.0
0.300000 1.050000 0.0
0.342857 1.050000 0.0
0.385714 1.050000 0.0
0.428571 1.050000 0.0
0.471429 1.050000 0.0
0.514286 1.050000 0.0
0.557143 1.050000 0.0
0.600000 1.050000 0.0
0.642857 1.050000 0.0
0.685714 1.050000 0.0
0.728571 1.050000 0.0
0.771429 1.050000 0.0
0.814286 1.050000 0.0
0.857143 1.050000 0.0
0.900000 1.050000 0.0
0.942857 1.050000 0.0
0.985714 1.050000 0.0
1.028571 1.050000 0.0
1.071429 1.050000 0.0
1.114286 1.050000 0.0
1.157143 1.050000 0.0
1.200000 1.050000 0.0
1.242857 1.050000 0.0
1.285714 1.050000 0.0
1.328571 1.050000 0.0
1.371429 1.050000 0.0
1.414286 1.050000 0.0
1.457143 1.050000 0.0
1.500000 1.050000 0.0
0.000000 1.093750 0.0
0.042857 1.093750 0.0
0.085714 1.093750 0.0
0.128571 1.093750 0.0
0.171429 1.093750 0.0
0.214286 1.093750 0.0
0.257143 1.093750 0.0
0.300000 1.093750 0.0
0.342857 1.093750 0.0
0.385714 1.093750 0.0
0.428571 1.093750 0.0
0.471429 1.093750 0.0
0.514286 1.093750 0.0
0.557143 1.093750 0.0
0.600000 1.093750 0.0
0.642857 1.093750 0.0
0.685714 1.093750 0.0
0.728571 1.093750 0.0
0.771429 1.093750 0.0
0.814286 1.093750 0.0
0.857143 1.093750 0.0
0.900000 1.093750 0.0
0.942857 1.093750 0.0
0.985714 1.093750 0.0
1.028571 1.093750 0.0
1.071429 1.093750 0.0
1.114286 1.093750 0.0
1.157143 1.093750 0.0
1.200000 1.093750 0.0
1.242857 1.093750 0.0
1.285714 1.093750 0.0
1.328571 1.093750 0.0
1.371429 1.093750 0.0
1.414286 1.093750 0.0
1.457143 1.093750 0.0
1.500000 1.093750 0.0
0.000000 1.137500 0.0
0.042857 1.137500 0.0
0.085714 1.137500 0.0
0.128571 1.137500 0.0
0.171429 1.137500 0.0
0.214286 1.137500 0.0
0.257143 1.137500 0.0
0.300000 1.137500 0.0
0.342857 1.137500 0.0
0.385714 1.137500 0.0
0.428571 1.137500 0.0
0.471429 1.137500 0.0
0.514286 1.137500 0.0
0.557143 1.137500 0.0
0.600000 1.137500 0.0
0.642857 1.137500 0.0
0.685714 1.137500 0.0
0.728571 1.137500 0.0
0.771429 1.137500 0.0
0.814286 1.137500 0.0
0.857143 1.137500 0.0
0.900000 1.137500 0.0
0.942857 1.137500 0.0
0.985714 1.137500 0.0
1.028571 1.137500 0.0
1.071429 1.137500 0.0
1.114286 1.137500 0.0
1.157143 1.137500 0.0
1.200000 1.137500 0.0
1.242857 1.137500 0.0
1.285714 1.137500 0.0
1.328571 1.137500 0.0
1.371429 1.137500 0.0
1.414286 1.137500 0.0
1.457143 1.137500 0.0
1.500000 1.137500 0.0
0.000000 1.181250 0.0
0.042857 1.181250 0.0
0.085714 1.181250 0.0
0.128571 1.181250 0.0
0.171429 1.181250 0.0
0.214286 1.181250 0.0
0.257143 1.181250 0.0
0.300000 1.181250 0.0
0.342857 1.181250 0.0
0.385714 1.181250 0.0
0.428571 1.181250 0.0
0.471429 1.181250 0.0
0.514286 1.181250 0.0
0.557143 1.181250 0.0
0.600000 1.181250 0.0
0.642857 1.181250 0.0
0.685714 1.181250 0.0
0.728571 1.181250 0.0
0.771429 1.181250 0.0
0.814286 1.181250 0.0
0.857143 1.181250 0.0
0.900000 1.181250 0.0
0.942857 1.181250 0.0
0.985714 1.181250 0.0
1.028571 1.181250 0.0
1.071429 1.181250 0.0
1.114286 1.181250 0.0
1.157143 1.181250 0.0
1.200000 1.181250 0.0
1.242857 1.181250 0.0
1.285714 1.181250 0.0
1.328571 1.181250 0.0
1.371429 1.181250 0.0
1.414286 1.181250 0.0
1.457143 1.181250 0.0
1.500000 1.181250 0.0
0.000000 1.225000 0.0
0.042857 1.225000 0.0
0.085714 1.225000 0.0
0.128571 1.225000 0.0
0.171429 1.225000 0.0
0.214286 1.225000 0.0
0.257143 1.225000 0.0
0.300000 1.225000 0.0
0.342857 1.225000 0.0
0.385714 1.225000 0.0
0.428571 1.225000 0.0
0.471429 1.225000 0.0
0.514286 1.225000 0.0
0.557143 1.225000 0.0
0.600000 1.225000 0.0
0.642857 1.225000 0.0
0.685714 1.225000 0.0
0.728571 1.225000 0.0
0.771429 1.225000 0.0
0.814286 1.225000 0.0
0.857143 1.225000 0.0
0.900000 1.225000 0.0
0.942857 1.225000 0.0
0.985714 1.225000 0.0
1.028571 1.225000 0.0
1.071429 1.225000 0.0
1.114286 1.225000 0.0
1.157143 1.225000 0.0
1.200000 1.225000 0.0
1.242857 1.225000 0.0
1.285714 1.225000 0.0
1.328571 1.225000 0.0
1.371429 1.225000 0.0
1.414286 1.225000 0.0
1.457143 1.225000 0.0
1.500000 1.225000 0.0
0.000000 1.268750 0.0
0.042857 1.268750 0.0
0.085714 1.268750 0.0
0.128571 1.268750 0.0
0.171429 1.268750 0.0
0.214286 1.268750 0.0
0.257143 1.268750 0.0
0.300000 1.268750 0.0
0.342857 1.268750 0.0
0.385714 1.268750 0.0
0.428571 1.268750 0.0
0.471429 1.268750 0.0
0.514286 1.268750 0.0
0.557143 1.268750 0.0
0.600000 1.268750 0.0
0.642857 1.268750 0.0
0.685714 1.268750 0.0
0.728571 1.268750 0.0
0.771429 1.268750 0.0
0.814286 1.268750 0.0
0.857143 1.268750 0.0
0.900000 1.268750 0.0
0.942857 1.268750 0.0
0.985714 1.268750 0.0
1.028571 1.268750 0.0
1.071429 1.268750 0.0
1.114286 1.268750 0.0
1.157143 1.268750 0.0
1.200000 1.268750 0.0
1.242857 1.268750 0.0
1.285714 1.268750 0.0
1.328571 1.268750 0.0
1.371429 1.268750 0.0
1.414286 1.268750 0.0
1.457143 1.268750 0.0
1.500000 1.268750 0.0
0.000000 1.312500 0.0
0.042857 1.312500 0.0
0.085714 1.312500 0.0
0.128571 1.312500 0.0
0.171429 1.312500 0.0
0.214286 1.312500 0.0
0.257143 1.312500 0.0
0.300000 1.312500 0.0
0.342857 1.312500 0.0
0.385714 1.312500 0.0
0.428571 1.312500 0.0
0.471429 1.312500 0.0
0.514286 1.312500 0.0
0.557143 1.312500 0.0
0.600000 1.312500 0.0
0.642857 1.312500 0.0
0.685714 1.312500 0.0
0.728571 1.312500 0.0
0.771429 1.312500 0.0
0.814286 1.312500 0.0
0.857143 1.312500 0.0
0.900000 1.312500 0.0
0.942857 1.312500 0.0
0.985714 1.312500 0.0
1.028571 1.312500 0.0
1.071429 1.312500 0.0
1.114286 1.312500 0.0
1.157143 1.312500 0.0
1.200000 1.312500 0.0
1.242857 1.312500 0.0
1.285714 1.312500 0.0
1.328571 1.312500 0.0
1.371429 1.312500 0.0
1.414286 1.312500 0.0
1.457143 1.312500 0.0
1.500000 1.312500 0.0
0.000000 1.356250 0.0
0.042857 1.356250 0.0
0.085714 1.356250 0.0
0.128571 1.356250 0.0
0.171429 1.356250 0.0
0.214286 1.356250 0.0
0.257143 1.356250 0.0
0.300000 1.356250 0.0
0.342857 1.356250 0.0
0.385714 1.356250 0.0
0.428571 1.356250 0.0
0.471429 1.356250 0.0
0.514286 1.356250 0.0
0.557143 1.356250 0.0
0.600000 1.356250 0.0
0.642857 1.356250 0.0
0.685714 1.356250 0.0
0.728571 1.356250 0.0
0.771429 1.356250 0.0
0.814286 1.356250 0.0
0.857143 1.356250 0.0
0.900000 1.356250 0.0
0.942857 1.356250 0.0
0.985714 1.356250 0.0
1.028571 1.356250 0.0
1.071429 1.356250 0.0
1.114286 1.356250 0.0
1.157143 1.356250 0.0
1.200000 1.356250 0.0
1.242857 1.356250 0.0
1.285714 1.356250 0.0
1.328571 1.356250 0.0
1.371429 1.356250 0.0
1.414286 1.356250 0.0
1.457143 1.356250 0.0
1.500000 1.356250 0.0
0.000000 1.400000 0.0
0.042857 1.400000 0.0
0.085714 1.400000 0.0
0.128571 1.400000 0.0
0.171429 1.400000 0.0
0.214286 1.400000 0.0
0.257143 1.400000 0.0
0.300000 1.400000 0.0
0.342857 1.400000 0.0
0.385714 1.400000 0.0
0.428571 1.400000 0.0
0.471429 1.400000 0.0
0.514286 1.400000 0.0
0.557143 1.400000 0.0
0.600000 1.400000 0.0
0.642857 1.400000 0.0
0.685714 1.400000 0.0
0.728571 1.400000 0.0
0.771429 1.400000 0.0
0.814286 1.400000 0.0
0.857143 1.400000 0.0
0.900000 1.400000 0.0
0.942857 1.400000 0.0
0.985714 1.400000 0.0
1.028571 1.400000 0.0
1.071429 1.400000 0.0
1.114286 1.400000 0.0
1.157143 1.400000 0.0
1.200000 1.400000 0.0
1.242857 1.400000 0.0
1.285714 1.400000 0.0
1.328571 1.400000 0.0
1.371429 1.400000 0.0
1.414286 1.400000 0.0
1.457143 1.400000 0.0
1.500000 1.400000 0.0
0.000000 1.443750 0.0
0.042857 1.443750 0.0
0.085714 1.443750 0.0
0.128571 1.443750 0.0
0.171429 1.443750 0.0
0.214286 1.443750 0.0
0.257143 1.443750 0.0
0.300000 1.443750 0.0
0.342857 1.443750 0.0
0.385714 1.443750 0.0
0.428571 1.443750 0.0
0.471429 1.443750 0.0
0.514286 1.443750 0.0
0.557143 1.443750 0.0
0.600000 1.443750 0.0
0.642857 1.443750 0.0
0.685714 1.443750 0.0
0.728571 1.443750 0.0
0.771429 1.443750 0.0
0.814286 1.443750 0.0
0.857143 1.443750 0.0
0.900000 1.443750 0.0
0.942857 1.443750 0.0
0.985714 1.443750 0.0
1.028571 1.443750 0.0
1.071429 1.443750 0.0
1.114286 1.443750 0.0
1.157143 1.443750 0.0
1.200000 1.443750 0.0
1.242857 1.443750 0.0
1.285714 1.443750 0.0
1.328571 1.443750 0.0
1.371429 1.443750 0.0
1.414286 1.443750 0.0
1.457143 1.443750 0.0
1.500000 1.443750 0.0
0.000000 1.487500 0.0
0.042857 1.487500 0.0
0.085714 1.487500 0.0
0.128571 1.487500 0.0
0.171429 1.487500 0.0
0.214286 1.487500 0.0
0.257143 1.487500 0.0
0.300000 1.487500 0.0
0.342857 1.487500 0.0
0.385714 1.487500 0.0
0.428571 1.487500 0.0
0.471429 1.487500 0.0
0.514286 1.487500 0.0
0.557143 1.487500 0.0
0.600000 1.487500 0.0
0.642857 1.487500 0.0
0.685714 1.487500 0.0
0.728571 1.487500 0.0
0.771429 1.487500 0.0
0.814286 1.487500 0.0
0.857143 1.487500 0.0
0.900000 1.487500 0.0
0.942857 1.487500 0.0
0.985714 1.487500 0.0
1.028571 1.487500 0.0
1.071429 1.487500 0.0
1.114286 1.487500 0.0
1.157143 1.487500 0.0
1.200000 1.487500 0.0
1.242857 1.487500 0.0
1.285714 1.487500 0.0
1.328571 1.487500 0.0
1.371429 1.487500 0.0
1.414286 1.487500 0.0
1.457143 1.487500 0.0
1.500000 1.487500 0.0
0.000000 1.531250 0.0
0.042857 1.531250 0.0
0.085714 1.531250 0.0
0.128571 1.531250 0.0
0.171429 1.531250 0.0
0.214286 1.531250 0.0
0.257143 1.531250 0.0
0.300000 1.531250 0.0
0.342857 1.531250 0.0
0.385714 1.531250 0.0
0.428571 1.531250 0.0
0.471429 1.531250 0.0
0.514286 1.531250 0.0
0.557143 1.531250 0.0
0.600000 1.531250 0.0
0.642857 1.531250 0.0
0.685714 1.531250 0.0
0.728571 1.531250 0.0
0.771429 1.531250 0.0
0.814286 1.531250 0.0
0.857143 1.531250 0.0
0.900000 1.531250 0.0
0.942857 1.531250 0.0
0.985714 1.531250 0.0
1.028571 1.531250 0.0
1.071429 1.531250 0.0
1.114286 1.531250 0.0
1.157143 1.531250 0.0
1.200000 1.531250 0.0
1.242857 1.531250 0.0
1.285714 1.531250 0.0
1.328571 1.531250 0.0
1.371429 1.531250 0.0
1.414286 1.531250 0.0
1.457143 1.531250 0.0
1.500000 1.531250 0.0
0.000000 1.575000 0.0
0.042857 1.575000 0.0
0.085714 1.575000 0.0
0.128571 1.575000 0.0
0.171429 1.575000 0.0
0.214286 1.575000 0.0
0.257143 1.575000 0.0
0.300000 1.575000 0.0
0.342857 1.575000 0.0
0.385714 1.575000 0.0
0.428571 1.575000 0.0
0.471429 1.575000 0.0
0.514286 1.575000 0.0
0.557143 1.575000 0.0
0.600000 1.575000 0.0
0.642857 1.575000 0.0
0.685714 1.575000 0.0
0.728571 1.575000 0.0
0.771429 1.575000 0.0
0.814286 1.575000 0.0
0.857143 1.575000 0.0
0.900000 1.575000 0.0
0.942857 1.575000 0.0
0.985714 1.575000 0.0
1.028571 1.575000 0.0
1.071429 1.575000 0.0
1.114286 1.575000 0.0
1.157143 1.575000 0.0
1.200000 1.575000 0.0
1.242857 1.575000 0.0
1.285714 1.575000 0.0
1.328571 1.575000 0.0
1.371429 1.575000 0.0
1.414286 1.575000 0.0
1.457143 1.575000 0.0
1.500000 1.575000 0.0
0.000000 1.618750 0.0
0.042857 1.618750 0.0
0.085714 1.618750 0.0
0.128571 1.618750 0.0
0.171429 1.618750 0.0
0.214286 1.618750 0.0
0.257143 1.618750 0.0
0.300000 1.618750 0.0
0.342857 1.618750 0.0
0.385714 1.618750 0.0
0.428571 1.618750 0.0
0.471429 1.618750 0.0
0.514286 1.618750 0.0
0.557143 1.618750 0.0
0.600000 1.618750 0.0
0.642857 1.618750 0.0
0.685714 1.618750 0.0
0.728571 1.618750 0.0
0.771429 1.618750 0.0
0.814286 1.618750 0.0
0.857143 1.618750 0.0
0.900000 1.618750 0.0
0.942857 1.618750 0.0
0.985714 1.618750 0.0
1.028571 1.618750 0.0
1.071429 1.618750 0.0
1.114286 1.618750 0.0
1.157143 1.618750 0.0
1.200000 1.618750 0.0
1.242857 1.618750 0.0
1.285714 1.618750 0.0
1.328571 1.618750 0.0
1.371429 1.618750 0.0
1.414286 1.618750 0.0
1.457143 1.618750 0.0
1.500000 1.618750 0.0
0.000000 1.662500 0.0
0.042857 1.662500 0.0
0.085714 1.662500 0.0
0.128571 1.662500 0.0
0.171429 1.662500 0.0
0.214286 1.662500 0.0
0.257143 1.662500 0.0
0.300000 1.662500 0.0
0.342857 1.662500 0.0
0.385714 1.662500 0.0
0.428571 1.662500 0.0
0.471429 1.662500 0.0
0.514286 1.662500 0.0
0.557143 1.662500 0.0
0.600000 1.662500 0.0
0.642857 1.662500 0.0
0.685714 1.662500 0.0
0.728571 1.662500 0.0
0.771429 1.662500 0.0
0.814286 1.662500 0.0
0.857143 1.662500 0.0
0.900000 1.662500 0.0
0.942857 1.662500 0.0
0.985714 1.662500 0.0
1.028571 1.662500 0.0
1.071429 1.662500 0.0
1.114286 1.662500 0.0
1.157143 1.662500 0.0
1.200000 1.662500 0.0
1.242857 1.662500 0.0
1.285714 1.662500 0.0
1.328571 1.662500 0.0
1.371429 1.662500 0.0
1.414286 1.662500 0.0
1.457143 1.662500 0.0
1.500000 1.662500 0.0
0.000000 1.706250 0.0
0.042857 1.706250 0.0
0.085714 1.706250 0.0
0.128571 1.706250 0.0
0.171429 1.706250 0.0
0.214286 1.706250 0.0
0.257143 1.706250 0.0
0.300000 1.706250 0.0
0.342857 1.706250 0.0
0.385714 1.706250 0.0
0.428571 1.706250 0.0
0.471429 1.706250 0.0
0.514286 1.706250 0.0
0.557143 1.706250 0.0
0.600000 1.706250 0.0
0.642857 1.706250 0.0
0.685714 1.706250 0.0
0.728571 1.706250 0.0
0.771429 1.706250 0.0
0.814286 1.706250 0.0
0.857143 1.706250 0.0
0.900000 1.706250 0.0
0.942857 1.706250 0.0
0.985714 1.706250 0.0
1.028571 1.706250 0.0
1.071429 1.706250 0.0
1.114286 1.706250 0.0
1.157143 1.706250 0.0
1.200000 1.706250 0.0
1.242857 1.706250 0.0
1.285714 1.706250 0.0
1.328571 1.706250 0.0
1.371429 1.706250 0.0
1.414286 1.706250 0.0
1.457143 1.706250 0.0
1.500000 1.706250 0.0
0.000000 1.750000 0.0
0.042857 1.750000 0.0
0.085714 1.750000 0.0
0.128571 1.750000 0.0
0.171429 1.750000 0.0
0.214286 1.750000 0.0
0.257143 1.750000 0.0
0.300000 1.750000 0.0
0.342857 1.750000 0.0
0.385714 1.750000 0.0
0.428571 1.750000 0.0
0.471429 1.750000 0.0
0.514286 1.750000 0.0
0.557143 1.750000 0.0
0.600000 1.750000 0.0
0.642857 1.750000 0.0
0.685714 1.750000 0.0
0.728571 1.750000 0.0
0.771429 1.750000 0.0
0.814286 1.750000 0.0
0.857143 1.750000 0.0
0.900000 1.750000 0.0
0.942857 1.750000 0.0
0.985714 1.750000 0.0
1.028571 1.750000 0.0
1.071429 1.750000 0.0
1.114286 1.750000 0.0
1.157143 1.750000 0.0
1.200000 1.750000 0.0
1.242857 1.750000 0.0
1.285714 1.750000 0.0
1.328571 1.750000 0.0
1.371429 1.750000 0.0
1.414286 1.750000 0.0
1.457143 1.750000 0.0
1.500000 1.750000 0.0
</DataArray></Points>
<PointData>
<DataArray NumberOfComponents="1" format="ascii" type ="Float32" Name="phi">
1.123793
1.109080
1.070435
1.031938
0.993738
0.955923
0.918393
0.881051
0.843908
0.807075
0.770704
0.734818
0.699345
0.664263
0.629632
0.595616
0.562383
0.529981
0.498354
0.467465
0.437397
0.408388
0.380655
0.354300
0.329551
0.306546
0.285177
0.265350
0.247053
0.230564
0.216479
0.205119
0.196327
0.189621
0.185198
0.183789
1.110333
1.090715
1.051551
1.012640
0.974091
0.935814
0.897696
0.859732
0.822022
0.784724
0.747853
0.711311
0.675064
0.639169
0.603781
0.569050
0.535003
0.501619
0.468930
0.437017
0.406038
0.376138
0.347323
0.319684
0.293618
0.269426
0.247067
0.226395
0.207287
0.189906
0.174861
0.162643
0.153309
0.146283
0.141594
0.140082
1.093196
1.073343
1.033763
0.994493
0.955494
0.916641
0.877914
0.839392
0.801232
0.763474
0.726002
0.688760
0.651792
0.615241
0.579230
0.543745
0.508754
0.474318
0.440589
0.407723
0.375835
0.344927
0.314962
0.286110
0.258692
0.233071
0.209495
0.187874
0.167928
0.149637
0.133586
0.120349
0.110337
0.102974
0.097999
0.096375
1.077240
1.057193
1.017234
0.977511
0.937942
0.898489
0.859198
0.820211
0.781603
0.743273
0.705140
0.667231
0.629663
0.592555
0.555880
0.519576
0.483677
0.448315
0.413653
0.379784
0.346786
0.314716
0.283634
0.253672
0.224954
0.197743
0.172614
0.149825
0.128999
0.109787
0.092692
0.078245
0.067384
0.059680
0.054396
0.052645
1.062642
1.042388
1.001971
0.961711
0.921574
0.881572
0.841785
0.802321
0.763143
0.724158
0.685372
0.646873
0.608769
0.571053
0.533654
0.496572
0.459892
0.423746
0.388187
0.353238
0.319024
0.285728
0.253501
0.222411
0.192460
0.163747
0.136765
0.112323
0.090487
0.070365
0.052217
0.037093
0.025788
0.017579
0.011896
0.009975
1.049349
1.028880
0.988006
0.947256
0.906626
0.866129
0.825832
0.785784
0.745956
0.706324
0.666924
0.627851
0.589137
0.550728
0.512606
0.474817
0.437448
0.400549
0.364109
0.328165
0.292842
0.258302
0.224745
0.192354
0.161178
0.131176
0.102407
0.075648
0.052331
0.031951
0.013176
-0.002756
-0.014835
-0.024043
-0.030423
-0.032630
1.037271
1.016621
0.975373
0.934222
0.893167
0.852215
0.811402
0.770773
0.730337
0.690087
0.650056
0.610314
0.570883
0.531736
0.492893
0.454413
0.416344
0.378679
0.341414
0.304602
0.268322
0.232634
0.197679
0.163735
0.131116
0.099891
0.069850
0.041467
0.016469
-0.004973
-0.024795
-0.042477
-0.056287
-0.066624
-0.073726
-0.076232
1.026349
1.005551
0.963993
0.922506
0.881089
0.839748
0.798509
0.757407
0.716447
0.675627
0.634965
0.594520
0.554333
0.514414
0.474794
0.435539
0.396675
0.358198
0.320126
0.282502
0.245356
0.208701
0.172578
0.137106
0.102656
0.069775
0.039019
0.010060
-0.016935
-0.041051
-0.062801
-0.082221
-0.097853
-0.109325
-0.117046
-0.119794
1.016507
0.995586
0.953769
0.912004
0.870292
0.828639
0.787063
0.745578
0.704187
0.662889
0.621703
0.580663
0.539802
0.499140
0.458714
0.418583
0.378793
0.339388
0.300415
0.261908
0.223887
0.186359
0.149314
0.112723
0.076604
0.042298
0.010505
-0.020092
-0.049467
-0.076312
-0.100220
-0.121317
-0.138764
-0.151723
-0.160283
-0.163316
1.007679
0.986653
0.944621
0.902630
0.860680
0.818777
0.776927
0.735135
0.693405
0.651739
0.610151
0.568659
0.527274
0.486011
0.444898
0.403970
0.363276
0.322876
0.282832
0.243208
0.204088
0.165536
0.127554
0.090127
0.053163
0.018052
-0.015530
-0.048687
-0.080400
-0.109863
-0.136317
-0.159500
-0.178936
-0.193688
-0.203391
-0.206793
0.999818
0.978704
0.936490
0.894310
0.852165
0.810054
0.767979
0.725944
0.683952
0.642008
0.600117
0.558284
0.516514
0.474818
0.433212
0.391708
0.350331
0.309111
0.268091
0.227338
0.186947
0.147019
0.107635
0.068857
0.031944
-0.003549
-0.039339
-0.074773
-0.108873
-0.140996
-0.170344
-0.196231
-0.218094
-0.235030
-0.246279
-0.250197
0.992907
0.971715
0.929346
0.887004
0.844688
0.802397
0.760133
0.717899
0.675700
0.633536
0.591408
0.549319
0.507272
0.465274
0.423328
0.381438
0.339614
0.297867
0.256213
0.214676
0.173295
0.132125
0.091261
0.050788
0.013529
-0.022594
-0.060463
-0.097819
-0.134172
-0.168980
-0.201459
-0.230663
-0.255670
-0.275418
-0.288781
-0.293461
0.986965
0.965705
0.923194
0.880704
0.838234
0.795782
0.753352
0.710948
0.668571
0.626220
0.583895
0.541600
0.499339
0.457114
0.414924
0.372771
0.330659
0.288592
0.246570
0.204596
0.162674
0.120819
0.079056
0.037417
-0.002271
-0.040687
-0.079596
-0.118171
-0.156174
-0.193223
-0.228697
-0.261602
-0.290602
-0.314158
-0.330569
-0.336437
0.982076
0.960775
0.918139
0.875494
0.832876
0.790273
0.747689
0.705126
0.662581
0.620055
0.577549
0.535069
0.492616
0.450192
0.407796
0.365431
0.323100
0.280806
0.238549
0.196325
0.154132
0.111966
0.069831
0.027517
-0.015715
-0.057520
-0.097120
-0.136521
-0.175580
-0.214137
-0.251885
-0.288099
-0.321431
-0.349892
-0.370845
-0.378697
0.976847
0.956319
0.914414
0.871660
0.828908
0.786164
0.743432
0.700710
0.657998
0.615297
0.572610
0.529938
0.487285
0.444649
0.402033
0.359440
0.316874
0.274336
0.231827
0.189349
0.146905
0.104493
0.062121
0.019898
-0.023964
-0.067551
-0.109006
-0.150195
-0.190981
-0.231273
-0.270961
-0.309765
-0.346905
-0.380668
-0.407849
-0.418914
0.959741
0.945944
0.911567
0.869576
0.826748
0.783914
0.741083
0.698254
0.655429
0.612607
0.569788
0.526975
0.484167
0.441363
0.398567
0.355781
0.313006
0.270241
0.227487
0.184746
0.142022
0.099314
0.056596
0.015159
-0.026289
-0.069071
-0.111832
-0.154458
-0.196849
-0.238938
-0.280718
-0.322141
-0.362928
-0.402167
-0.437259
-0.453031
0.924071
0.920044
0.902450
0.868394
0.826480
0.783632
0.740787
0.697944
0.655103
0.612265
0.569430
0.526595
0.483763
0.440934
0.398108
0.355290
0.312477
0.269670
0.226872
0.184086
0.141314
0.098554
0.055770
0.014786
-0.024968
-0.066545
-0.109307
-0.152033
-0.194760
-0.237483
-0.280201
-0.322850
-0.365218
-0.406345
-0.443403
-0.460391
0.880568
0.880476
0.876645
0.859977
0.826874
0.785315
0.742545
0.699781
0.657028
0.614288
0.571560
0.528842
0.486135
0.443443
0.400769
0.358118
0.315491
0.272887
0.230313
0.187776
0.145280
0.102823
0.060394
0.019274
-0.021229
-0.063203
-0.105916
-0.148543
-0.191075
-0.233378
-0.275188
-0.316128
-0.355563
-0.391854
-0.421727
-0.434713
0.836818
0.836841
0.836813
0.833588
0.818568
0.787176
0.746326
0.703724
0.661136
0.618570
0.576032
0.533517
0.491025
0.448561
0.406134
0.363748
0.321402
0.279099
0.236844
0.194648
0.152515
0.110446
0.068442
0.026931
-0.015839
-0.059130
-0.101099
-0.142726
-0.183819
-0.224121
-0.263231
-0.300527
-0.334887
-0.364394
-0.386656
-0.395853
0.793069
0.793092
0.793147
0.793171
0.790788
0.778087
0.749242
0.709431
0.666949
0.624585
0.582257
0.539962
0.497701
0.455480
0.413310
0.371195
0.329134
0.287128
0.245186
0.203319
0.161533
0.119832
0.078224
0.036729
-0.006818
-0.050083
-0.090581
-0.130223
-0.168827
-0.206206
-0.241984
-0.275400
-0.305103
-0.329390
-0.346929
-0.354036
0.760256
0.749342
0.749398
0.749470
0.749541
0.748142
0.738217
0.712591
0.674270
0.632004
0.589890
0.547837
0.505830
0.463877
0.421993
0.380184
0.338453
0.296802
0.255248
0.213817
0.172532
0.131429
0.090573
0.050045
0.008296
-0.033870
-0.073430
-0.110856
-0.147195
-0.182155
-0.215122
-0.245093
-0.270730
-0.291017
-0.305501
-0.311361
</DataArray>
<DataArray NumberOfComponents="1" format="ascii" type ="Float32" Name="u">
0.000000
0.005439
0.005455
0.005486
0.005537
0.005609
0.005701
0.005817
0.005956
0.006120
0.006310
0.006528
0.006776
0.007054
0.007365
0.007708
0.008083
0.008489
0.008922
0.009374
0.009835
0.010287
0.010710
0.011074
0.011349
0.011498
0.011487
0.011278
0.010839
0.010142
0.009169
0.007913
0.006373
0.004570
0.002552
0.000388
0.005320
0.005320
0.005331
0.005360
0.005410
0.005484
0.005581
0.005703
0.005852
0.006028
0.006233
0.006470
0.006741
0.007048
0.007395
0.007782
0.008211
0.008683
0.009195
0.009742
0.010314
0.010894
0.011458
0.011976
0.012407
0.012710
0.012839
0.012745
0.012382
0.011709
0.010695
0.009324
0.007580
0.005475
0.003084
0.000492
0.005161
0.005161
0.005175
0.005205
0.005258
0.005334
0.005436
0.005564
0.005720
0.005907
0.006125
0.006379
0.006672
0.007006
0.007386
0.007815
0.008297
0.008835
0.009429
0.010075
0.010768
0.011489
0.012215
0.012907
0.013519
0.013997
0.014280
0.014303
0.014001
0.013318
0.012205
0.010665
0.008658
0.006165
0.003396
0.000455
0.004976
0.004976
0.004991
0.005024
0.005080
0.005159
0.005264
0.005397
0.005560
0.005755
0.005984
0.006252
0.006563
0.006921
0.007331
0.007799
0.008332
0.008934
0.009609
0.010359
0.011178
0.012053
0.012956
0.013843
0.014651
0.015306
0.015725
0.015811
0.015472
0.014645
0.013223
0.011358
0.009047
0.006044
0.003056
0.000157
0.004767
0.004767
0.004783
0.004818
0.004875
0.004957
0.005065
0.005201
0.005368
0.005569
0.005807
0.006086
0.006411
0.006788
0.007224
0.007727
0.008304
0.008966
0.009720
0.010572
0.011523
0.012561
0.013654
0.014745
0.015746
0.016545
0.017012
0.016991
0.016358
0.015057
0.012833
0.010206
0.007540
0.004514
0.001916
-0.000344
0.004534
0.004534
0.004552
0.004587
0.004645
0.004728
0.004837
0.004975
0.005144
0.005348
0.005591
0.005876
0.006211
0.006603
0.007058
0.007588
0.008204
0.008919
0.009746
0.010697
0.011778
0.012981
0.014268
0.015555
0.016710
0.017548
0.017846
0.017344
0.015926
0.013336
0.010071
0.006781
0.004058
0.002149
0.000647
-0.000660
0.004279
0.004279
0.004297
0.004332
0.004390
0.004472
0.004581
0.004718
0.004887
0.005090
0.005334
0.005621
0.005961
0.006359
0.006827
0.007376
0.008021
0.008779
0.009668
0.010709
0.011914
0.013275
0.014740
0.016183
0.017384
0.018031
0.017747
0.016162
0.013137
0.009148
0.005798
0.003227
0.001340
0.000561
-0.000034
-0.000601
0.004001
0.004001
0.004018
0.004053
0.004110
0.004190
0.004296
0.004430
0.004595
0.004795
0.005034
0.005319
0.005656
0.006055
0.006526
0.007084
0.007745
0.008532
0.009470
0.010585
0.011895
0.013389
0.014986
0.016489
0.017534
0.017611
0.016171
0.012787
0.008375
0.004856
0.002580
0.001233
0.000368
0.000014
-0.000223
-0.000414
0.003701
0.003701
0.003717
0.003751
0.003805
0.003881
0.003982
0.004111
0.004269
0.004461
0.004691
0.004967
0.005295
0.005685
0.006149
0.006703
0.007367
0.008166
0.009131
0.010294
0.011677
0.013255
0.014900
0.016306
0.016923
0.016025
0.012692
0.008031
0.004320
0.002254
0.001035
0.000318
-0.000054
-0.000186
-0.000243
-0.000266
0.003379
0.003379
0.003394
0.003426
0.003476
0.003548
0.003642
0.003761
0.003909
0.004089
0.004305
0.004565
0.004876
0.005247
0.005692
0.006228
0.006875
0.007664
0.008629
0.009806
0.011213
0.012798
0.014364
0.015472
0.015367
0.013050
0.008147
0.004261
0.002100
0.000878
0.000239
-0.000091
-0.000220
-0.000237
-0.000213
-0.000169
0.003037
0.003037
0.003051
0.003080
0.003126
0.003190
0.003275
0.003383
0.003516
0.003679
0.003876
0.004113
0.004398
0.004740
0.005153
0.005653
0.006263
0.007014
0.007942
0.009085
0.010449
0.011944
0.013281
0.013889
0.012927
0.008895
0.004601
0.002188
0.000862
0.000165
-0.000141
-0.000255
-0.000264
-0.000227
-0.000170
-0.000104
0.002678
0.002678
0.002690
0.002715
0.002755
0.002811
0.002884
0.002978
0.003093
0.003235
0.003406
0.003613
0.003862
0.004163
0.004528
0.004974
0.005521
0.006200
0.007047
0.008094
0.009339
0.010653
0.011650
0.011619
0.009825
0.005120
0.002460
0.000941
0.000162
-0.000188
-0.000293
-0.000292
-0.000246
-0.000188
-0.000125
-0.000058
0.002302
0.002302
0.002313
0.002334
0.002367
0.002412
0.002472
0.002548
0.002642
0.002757
0.002897
0.003066
0.003271
0.003519
0.003821
0.004191
0.004647
0.005214
0.005923
0.006802
0.007844
0.008917
0.009591
0.008985
0.006245
0.002683
0.001006
0.000156
-0.000207
-0.000315
-0.000302
-0.000249
-0.000190
-0.000134
-0.000079
-0.000023
0.001914
0.001914
0.001923
0.001939
0.001964
0.001998
0.002043
0.002099
0.002167
0.002252
0.002354
0.002478
0.002629
0.002811
0.003034
0.003307
0.003642
0.004055
0.004564
0.005188
0.005926
0.006696
0.007171
0.006450
0.002813
0.000966
0.000131
-0.000191
-0.000272
-0.000255
-0.000207
-0.000157
-0.000114
-0.000075
-0.000037
0.000004
0.001517
0.001517
0.001523
0.001534
0.001551
0.001572
0.001599
0.001633
0.001673
0.001723
0.001783
0.001855
0.001943
0.002050
0.002179
0.002334
0.002520
0.002739
0.002991
0.003277
0.003597
0.003954
0.004257
0.003934
0.000655
0.000069
-0.000070
-0.000095
-0.000091
-0.000081
-0.000070
-0.000057
-0.000043
-0.000026
-0.000004
0.000023
0.001114
0.001114
0.001118
0.001124
0.001131
0.001139
0.001147
0.001156
0.001166
0.001178
0.001191
0.001207
0.001226
0.001247
0.001270
0.001293
0.001310
0.001308
0.001269
0.001170
0.001009
0.000861
0.000902
0.001119
0.000148
0.000237
0.000271
0.000220
0.000144
0.000077
0.000033
0.000010
0.000004
0.000009
0.000020
0.000037
0.000708
0.000708
0.000710
0.000711
0.000709
0.000703
0.000692
0.000675
0.000653
0.000624
0.000589
0.000545
0.000490
0.000421
0.000332
0.000215
0.000056
-0.000170
-0.000497
-0.000960
-0.001565
-0.002198
-0.002498
-0.001866
0.000386
0.000671
0.000554
0.000371
0.000218
0.000116
0.000060
0.000034
0.000028
0.000031
0.000039
0.000050
0.000305
0.000305
0.000306
0.000302
0.000291
0.000270
0.000239
0.000196
0.000141
0.000072
-0.000013
-0.000118
-0.000248
-0.000408
-0.000608
-0.000862
-0.001190
-0.001621
-0.002192
-0.002938
-0.003859
-0.004824
-0.005402
-0.004605
-0.000374
0.000224
0.000215
0.000138
0.000080
0.000048
0.000036
0.000037
0.000043
0.000052
0.000061
0.000069