<VTKFile type="StructuredGrid" version="0.1" byte_order="LittleEndian">
<StructuredGrid WholeExtent="1 71 1 81 0 0">
<Piece Extent="36 71 41 61 0 0">
<PointData></PointData>
<CellData></CellData>
<Points>
<DataArray NumberOfComponents="3" format="ascii" type ="Float32" Name="mesh">
1.500000 1.750000 0.0
1.542857 1.750000 0.0
1.585714 1.750000 0.0
1.628571 1.750000 0.0
1.671429 1.750000 0.0
1.714286 1.750000 0.0
1.757143 1.750000 0.0
1.800000 1.750000 0.0
1.842857 1.750000 0.0
1.885714 1.750000 0.0
1.928571 1.750000 0.0
1.971429 1.750000 0.0
2.014286 1.750000 0.0
2.057143 1.750000 0.0
2.100000 1.750000 0.0
2.142857 1.750000 0.0
2.185714 1.750000 0.0
2.228571 1.750000 0.0
2.271429 1.750000 0.0
2.314286 1.750000 0.0
2.357143 1.750000 0.0
2.400000 1.750000 0.0
2.442857 1.750000 0.0
2.485714 1.750000 0.0
2.528571 1.750000 0.0
2.571429 1.750000 0.0
2.614286 1.750000 0.0
2.657143 1.750000 0.0
2.700000 1.750000 0.0
2.742857 1.750000 0.0
2.785714 1.750000 0.0
2.828571 1.750000 0.0
2.871429 1.750000 0.0
2.914286 1.750000 0.0
2.957143 1.750000 0.0
3.000000 1.750000 0.0
1.500000 1.793750 0.0
1.542857 1.793750 0.0
1.585714 1.793750 0.0
1.628571 1.793750 0.0
1.671429 1.793750 0.0
1.714286 1.793750 0.0
1.757143 1.793750 0.0
1.800000 1.793750 0.0
1.842857 1.793750 0.0
1.885714 1.793750 0.0
1.928571 1.793750 0.0
1.971429 1.793750 0.0
2.014286 1.793750 0.0
2.057143 1.793750 0.0
2.100000 1.793750 0.0
2.142857 1.793750 0.0
2.185714 1.793750 0.0
2.228571 1.793750 0.0
2.271429 1.793750 0.0
2.314286 1.793750 0.0
2.357143 1.793750 0.0
2.400000 1.793750 0.0
2.442857 1.793750 0.0
2.485714 1.793750 0.0
2.528571 1.793750 0.0
2.571429 1.793750 0.0
2.614286 1.793750 0.0
2.657143 1.793750 0.0
2.700000 1.793750 0.0
2.742857 1.793750 0.0
2.785714 1.793750 0.0
2.828571 1.793750 0.0
2.871429 1.793750 0.0
2.914286 1.793750 0.0
2.957143 1.793750 0.0
3.000000 1.793750 0.0
1.500000 1.837500 0.0
1.542857 1.837500 0.0
1.585714 1.837500 0.0
1.628571 1.837500 0.0
1.671429 1.837500 0.0
1.714286 1.837500 0.0
1.757143 1.837500 0.0
1.800000 1.837500 0.0
1.842857 1.837500 0.0
1.885714 1.837500 0.0
1.928571 1.837500 0.0
1.971429 1.837500 0.0
2.014286 1.837500 0.0
2.057143 1.837500 0.0
2.100000 1.837500 0.0
2.142857 1.837500 0.0
2.185714 1.837500 0.0
2.228571 1.837500 0.0
2.271429 1.837500 0.0
2.314286 1.837500 0.0
2.357143 1.837500 0.0
2.400000 1.837500 0.0
2.442857 1.837500 0.0
2.485714 1.837500 0.0
2.528571 1.837500 0.0
2.571429 1.837500 0.0
2.614286 1.837500 0.0
2.657143 1.837500 0.0
2.700000 1.837500 0.0
2.742857 1.837500 0.0
2.785714 1.837500 0.0
2.828571 1.837500 0.0
2.871429 1.837500 0.0
2.914286 1.837500 0.0
2.957143 1.837500 0.0
3.000000 1.837500 0.0
1.500000 1.881250 0.0
1.542857 1.881250 0.0
1.585714 1.881250 0.0
1.628571 1.881250 0.0
1.671429 1.881250 0.0
1.714286 1.881250 0.0
1.757143 1.881250 0.0
1.800000 1.881250 0.0
1.842857 1.881250 0.0
1.885714 1.881250 0.0
1.928571 1.881250 0.0
1.971429 1.881250 0.0
2.014286 1.881250 0.0
2.057143 1.881250 0.0
2.100000 1.881250 0.0
2.142857 1.881250 0.0
2.185714 1.881250 0.0
2.228571 1.881250 0.0
2.271429 1.881250 0.0
2.314286 1.881250 0.0
2.357143 1.881250 0.0
2.400000 1.881250 0.0
2.442857 1.881250 0.0
2.485714 1.881250 0.0
2.528571 1.881250 0.0
2.571429 1.881250 0.0
2.614286 1.881250 0.0
2.657143 1.881250 0.0
2.700000 1.881250 0.0
2.742857 1.881250 0.0
2.785714 1.881250 0.0
2.828571 1.881250 0.0
2.871429 1.881250 0.0
2.914286 1.881250 0.0
2.957143 1.881250 0.0
3.000000 1.881250 0.0
1.500000 1.925000 0.0
1.542857 1.925000 0.0
1.585714 1.925000 0.0
1.628571 1.925000 0.0
1.671429 1.925000 0.0
1.714286 1.925000 0.0
1.757143 1.925000 0.0
1.800000 1.925000 0.0
1.842857 1.925000 0.0
1.885714 1.925000 0.0
1.928571 1.925000 0.0
1.971429 1.925000 0.0
2.014286 1.925000 0.0
2.057143 1.925000 0.0
2.100000 1.925000 0.0
2.142857 1.925000 0.0
2.185714 1.925000 0.0
2.228571 1.925000 0.0
2.271429 1.925000 0.0
2.314286 1.925000 0.0
2.357143 1.925000 0.0
2.400000 1.925000 0.0
2.442857 1.925000 0.0
2.485714 1.925000 0.0
2.528571 1.925000 0.0
2.571429 1.925000 0.0
2.614286 1.925000 0.0
2.657143 1.925000 0.0
2.700000 1.925000 0.0
2.742857 1.925000 0.0
2.785714 1.925000 0.0
2.828571 1.925000 0.0
2.871429 1.925000 0.0
2.914286 1.925000 0.0
2.957143 1.925000 0.0
3.000000 1.925000 0.0
1.500000 1.968750 0.0
1.542857 1.968750 0.0
1.585714 1.968750 0.0
1.628571 1.968750 0.0
1.671429 1.968750 0.0
1.714286 1.968750 0.0
1.757143 1.968750 0.0
1.800000 1.968750 0.0
1.842857 1.968750 0.0
1.885714 1.968750 0.0
1.928571 1.968750 0.0
1.971429 1.968750 0.0
2.014286 1.968750 0.0
2.057143 1.968750 0.0
2.100000 1.968750 0.0
2.142857 1.968750 0.0
2.185714 1.968750 0.0
2.228571 1.968750 0.0
2.271429 1.968750 0.0
2.314286 1.968750 0.0
2.357143 1.968750 0.0
2.400000 1.968750 0.0
2.442857 1.968750 0.0
2.485714 1.968750 0.0
2.528571 1.968750 0.0
2.571429 1.968750 0.0
2.614286 1.968750 0.0
2.657143 1.968750 0.0
2.700000 1.968750 0.0
2.742857 1.968750 0.0
2.785714 1.968750 0.0
2.828571 1.968750 0.0
2.871429 1.968750 0.0
2.914286 1.968750 0.0
2.957143 1.968750 0.0
3.000000 1.968750 0.0
1.500000 2.012500 0.0
1.542857 2.012500 0.0
1.585714 2.012500 0.0
1.628571 2.012500 0.0
1.671429 2.012500 0.0
1.714286 2.012500 0.0
1.757143 2.012500 0.0
1.800000 2.012500 0.0
1.842857 2.012500 0.0
1.885714 2.012500 0.0
1.928571 2.012500 0.0
1.971429 2.012500 0.0
2.014286 2.012500 0.0
2.057143 2.012500 0.0
2.100000 2.012500 0.0
2.142857 2.012500 0.0
2.185714 2.012500 0.0
2.228571 2.012500 0.0
2.271429 2.012500 0.0
2.314286 2.012500 0.0
2.357143 2.012500 0.0
2.400000 2.012500 0.0
2.442857 2.012500 0.0
2.485714 2.012500 0.0
2.528571 2.012500 0.0
2.571429 2.012500 0.0
2.614286 2.012500 0.0
2.657143 2.012500 0.0
2.700000 2.012500 0.0
2.742857 2.012500 0.0
2.785714 2.012500 0.0
2.828571 2.012500 0.0
2.871429 2.012500 0.0
2.914286 2.012500 0.0
2.957143 2.012500 0.0
3.000000 2.012500 0.0
1.500000 2.056250 0.0
1.542857 2.056250 0.0
1.585714 2.056250 0.0
1.628571 2.056250 0.0
1.671429 2.056250 0.0
1.714286 2.056250 0.0
1.757143 2.056250 0.0
1.800000 2.056250 0.0
1.842857 2.056250 0.0
1.885714 2.056250 0.0
1.928571 2.056250 0.0
1.971429 2.056250 0.0
2.014286 2.056250 0.0
2.057143 2.056250 0.0
2.100000 2.056250 0.0
2.142857 2.056250 0.0
2.185714 2.056250 0.0
2.228571 2.056250 0.0
2.271429 2.056250 0.0
2.314286 2.056250 0.0
2.357143 2.056250 0.0
2.400000 2.056250 0.0
2.442857 2.056250 0.0
2.485714 2.056250 0.0
2.528571 2.056250 0.0
2.571429 2.056250 0.0
2.614286 2.056250 0.0
2.657143 2.056250 0.0
2.700000 2.056250 0.0
2.742857 2.056250 0.0
2.785714 2.056250 0.0
2.828571 2.056250 0.0
2.871429 2.056250 0.0
2.914286 2.056250 0.0
2.957143 2.056250 0.0
3.000000 2.056250 0.0
1.500000 2.100000 0.0
1.542857 2.100000 0.0
1.585714 2.100000 0.0
1.628571 2.100000 0.0
1.671429 2.100000 0.0
1.714286 2.100000 0.0
1.757143 2.100000 0.0
1.800000 2.100000 0.0
1.842857 2.100000 0.0
1.885714 2.100000 0.0
1.928571 2.100000 0.0
1.971429 2.100000 0.0
2.014286 2.100000 0.0
2.057143 2.100000 0.0
2.100000 2.100000 0.0
2.142857 2.100000 0.0
2.185714 2.100000 0.0
2.228571 2.100000 0.0
2.271429 2.100000 0.0
2.314286 2.100000 0.0
2.357143 2.100000 0.0
2.400000 2.100000 0.0
2.442857 2.100000 0.0
2.485714 2.100000 0.0
2.528571 2.100000 0.0
2.571429 2.100000 0.0
2.614286 2.100000 0.0
2.657143 2.100000 0.0
2.700000 2.100000 0.0
2.742857 2.100000 0.0
2.785714 2.100000 0.0
2.828571 2.100000 0.0
2.871429 2.100000 0.0
2.914286 2.100000 0.0
2.957143 2.100000 0.0
3.000000 2.100000 0.0
1.500000 2.143750 0.0
1.542857 2.143750 0.0
1.585714 2.143750 0.0
1.628571 2.143750 0.0
1.671429 2.143750 0.0
1.714286 2.143750 0.0
1.757143 2.143750 0.0
1.800000 2.143750 0.0
1.842857 2.143750 0.0
1.885714 2.143750 0.0
1.928571 2.143750 0.0
1.971429 2.143750 0.0
2.014286 2.143750 0.0
2.057143 2.143750 0.0
2.100000 2.143750 0.0
2.142857 2.143750 0.0
2.185714 2.143750 0.0
2.228571 2.143750 0.0
2.271429 2.143750 0.0
2.314286 2.143750 0.0
2.357143 2.143750 0.0
2.400000 2.143750 0.0
2.442857 2.143750 0.0
2.485714 2.143750 0.0
2.528571 2.143750 0.0
2.571429 2.143750 0.0
2.614286 2.143750 0.0
2.657143 2.143750 0.0
2.700000 2.143750 0.0
2.742857 2.143750 0.0
2.785714 2.143750 0.0
2.828571 2.143750 0.0
2.871429 2.143750 0.0
2.914286 2.143750 0.0
2.957143 2.143750 0.0
3.000000 2.143750 0.0
1.500000 2.187500 0.0
1.542857 2.187500 0.0
1.585714 2.187500 0.0
1.628571 2.187500 0.0
1.671429 2.187500 0.0
1.714286 2.187500 0.0
1.757143 2.187500 0.0
1.800000 2.187500 0.0
1.842857 2.187500 0.0
1.885714 2.187500 0.0
1.928571 2.187500 0.0
1.971429 2.187500 0.0
2.014286 2.187500 0.0
2.057143 2.187500 0.0
2.100000 2.187500 0.0
2.142857 2.187500 0.0
2.185714 2.187500 0.0
2.228571 2.187500 0.0
2.271429 2.187500 0.0
2.314286 2.187500 0.0
2.357143 2.187500 0.0
2.400000 2.187500 0.0
2.442857 2.187500 0.0
2.485714 2.187500 0.0
2.528571 2.187500 0.0
2.571429 2.187500 0.0
2.614286 2.187500 0.0
2.657143 2.187500 0.0
2.700000 2.187500 0.0
2.742857 2.187500 0.0
2.785714 2.187500 0.0
2.828571 2.187500 0.0
2.871429 2.187500 0.0
2.914286 2.187500 0.0
2.957143 2.187500 0.0
3.000000 2.187500 0.0
1.500000 2.231250 0.0
1.542857 2.231250 0.0
1.585714 2.231250 0.0
1.628571 2.231250 0.0
1.671429 2.231250 0.0
1.714286 2.231250 0.0
1.757143 2.231250 0.0
1.800000 2.231250 0.0
1.842857 2.231250 0.0
1.885714 2.231250 0.0
1.928571 2.231250 0.0
1.971429 2.231250 0.0
2.014286 2.231250 0.0
2.057143 2.231250 0.0
2.100000 2.231250 0.0
2.142857 2.231250 0.0
2.185714 2.231250 0.0
2.228571 2.231250 0.0
2.271429 2.231250 0.0
2.314286 2.231250 0.0
2.357143 2.231250 0.0
2.400000 2.231250 0.0
2.442857 2.231250 0.0
2.485714 2.231250 0.0
2.528571 2.231250 0.0
2.571429 2.231250 0.0
2.614286 2.231250 0.0
2.657143 2.231250 0.0
2.700000 2.231250 0.0
2.742857 2.231250 0.0
2.785714 2.231250 0.0
2.828571 2.231250 0.0
2.871429 2.231250 0.0
2.914286 2.231250 0.0
2.957143 2.231250 0.0
3.000000 2.231250 0.0
1.500000 2.275000 0.0
1.542857 2.275000 0.0
1.585714 2.275000 0.0
1.628571 2.275000 0.0
1.671429 2.275000 0.0
1.714286 2.275000 0.0
1.757143 2.275000 0.0
1.800000 2.275000 0.0
1.842857 2.275000 0.0
1.885714 2.275000 0.0
1.928571 2.275000 0.0
1.971429 2.275000 0.0
2.014286 2.275000 0.0
2.057143 2.275000 0.0
2.100000 2.275000 0.0
2.142857 2.275000 0.0
2.185714 2.275000 0.0
2.228571 2.275000 0.0
2.271429 2.275000 0.0
2.314286 2.275000 0.0
2.357143 2.275000 0.0
2.400000 2.275000 0.0
2.442857 2.275000 0.0
2.485714 2.275000 0.0
2.528571 2.275000 0.0
2.571429 2.275000 0.0
2.614286 2.275000 0.0
2.657143 2.275000 0.0
2.700000 2.275000 0.0
2.742857 2.275000 0.0
2.785714 2.275000 0.0
2.828571 2.275000 0.0
2.871429 2.275000 0.0
2.914286 2.275000 0.0
2.957143 2.275000 0.0
3.000000 2.275000 0.0
1.500000 2.318750 0.0
1.542857 2.318750 0.0
1.585714 2.318750 0.0
1.628571 2.318750 0.0
1.671429 2.318750 0.0
1.714286 2.318750 0.0
1.757143 2.318750 0.0
1.800000 2.318750 0.0
1.842857 2.318750 0.0
1.885714 2.318750 0.0
1.928571 2.318750 0.0
1.971429 2.318750 0.0
2.014286 2.318750 0.0
2.057143 2.318750 0.0
2.100000 2.318750 0.0
2.142857 2.318750 0.0
2.185714 2.318750 0.0
2.228571 2.318750 0.0
2.271429 2.318750 0.0
2.314286 2.318750 0.0
2.357143 2.318750 0.0
2.400000 2.318750 0.0
2.442857 2.318750 0.0
2.485714 2.318750 0.0
2.528571 2.318750 0.0
2.571429 2.318750 0.0
2.614286 2.318750 0.0
2.657143 2.318750 0.0
2.700000 2.318750 0.0
2.742857 2.318750 0.0
2.785714 2.318750 0.0
2.828571 2.318750 0.0
2.871429 2.318750 0.0
2.914286 2.318750 0.0
2.957143 2.318750 0.0
3.000000 2.318750 0.0
1.500000 2.362500 0.0
1.542857 2.362500 0.0
1.585714 2.362500 0.0
1.628571 2.362500 0.0
1.671429 2.362500 0.0
1.714286 2.362500 0.0
1.757143 2.362500 0.0
1.800000 2.362500 0.0
1.842857 2.362500 0.0
1.885714 2.362500 0.0
1.928571 2.362500 0.0
1.971429 2.362500 0.0
2.014286 2.362500 0.0
2.057143 2.362500 0.0
2.100000 2.362500 0.0
2.142857 2.362500 0.0
2.185714 2.362500 0.0
2.228571 2.362500 0.0
2.271429 2.362500 0.0
2.314286 2.362500 0.0
2.357143 2.362500 0.0
2.400000 2.362500 0.0
2.442857 2.362500 0.0
2.485714 2.362500 0.0
2.528571 2.362500 0.0
2.571429 2.362500 0.0
2.614286 2.362500 0.0
2.657143 2.362500 0.0
2.700000 2.362500 0.0
2.742857 2.362500 0.0
2.785714 2.362500 0.0
2.828571 2.362500 0.0
2.871429 2.362500 0.0
2.914286 2.362500 0.0
2.957143 2.362500 0.0
3.000000 2.362500 0.0
1.500000 2.406250 0.0
1.542857 2.406250 0.0
1.585714 2.406250 0.0
1.628571 2.406250 0.0
1.671429 2.406250 0.0
1.714286 2.406250 0.0
1.757143 2.406250 0.0
1.800000 2.406250 0.0
1.842857 2.406250 0.0
1.885714 2.406250 0.0
1.928571 2.406250 0.0
1.971429 2.406250 0.0
2.014286 2.406250 0.0
2.057143 2.406250 0.0
2.100000 2.406250 0.0
2.142857 2.406250 0.0
2.185714 2.406250 0.0
2.228571 2.406250 0.0
2.271429 2.406250 0.0
2.314286 2.406250 0.0
2.357143 2.406250 0.0
2.400000 2.406250 0.0
2.442857 2.406250 0.0
2.485714 2.406250 0.0
2.528571 2.406250 0.0
2.571429 2.406250 0.0
2.614286 2.406250 0.0
2.657143 2.406250 0.0
2.700000 2.406250 0.0
2.742857 2.406250 0.0
2.785714 2.406250 0.0
2.828571 2.406250 0.0
2.871429 2.406250 0.0
2.914286 2.406250 0.0
2.957143 2.406250 0.0
3.000000 2.406250 0.0
1.500000 2.450000 0.0
1.542857 2.450000 0.0
1.585714 2.450000 0.0
1.628571 2.450000 0.0
1.671429 2.450000 0.0
1.714286 2.450000 0.0
1.757143 2.450000 0.0
1.800000 2.450000 0.0
1.842857 2.450000 0.0
1.885714 2.450000 0.0
1.928571 2.450000 0.0
1.971429 2.450000 0.0
2.014286 2.450000 0.0
2.057143 2.450000 0.0
2.100000 2.450000 0.0
2.142857 2.450000 0.0
2.185714 2.450000 0.0
2.228571 2.450000 0.0
2.271429 2.450000 0.0
2.314286 2.450000 0.0
2.357143 2.450000 0.0
2.400000 2.450000 0.0
2.442857 2.450000 0.0
2.485714 2.450000 0.0
2.528571 2.450000 0.0
2.571429 2.450000 0.0
2.614286 2.450000 0.0
2.657143 2.450000 0.0
2.700000 2.450000 0.0
2.742857 2.450000 0.0
2.785714 2.450000 0.0
2.828571 2.450000 0.0
2.871429 2.450000 0.0
2.914286 2.450000 0.0
2.957143 2.450000 0.0
3.000000 2.450000 0.0
1.500000 2.493750 0.0
1.542857 2.493750 0.0
1.585714 2.493750 0.0
1.628571 2.493750 0.0
1.671429 2.493750 0.0
1.714286 2.493750 0.0
1.757143 2.493750 0.0
1.800000 2.493750 0.0
1.842857 2.493750 0.0
1.885714 2.493750 0.0
1.928571 2.493750 0.0
1.971429 2.493750 0.0
2.014286 2.493750 0.0
2.057143 2.493750 0.0
2.100000 2.493750 0.0
2.142857 2.493750 0.0
2.185714 2.493750 0.0
2.228571 2.493750 0.0
2.271429 2.493750 0.0
2.314286 2.493750 0.0
2.357143 2.493750 0.0
2.400000 2.493750 0.0
2.442857 2.493750 0.0
2.485714 2.493750 0.0
2.528571 2.493750 0.0
2.571429 2.493750 0.0
2.614286 2.493750 0.0
2.657143 2.493750 0.0
2.700000 2.493750 0.0
2.742857 2.493750 0.0
2.785714 2.493750 0.0
2.828571 2.493750 0.0
2.871429 2.493750 0.0
2.914286 2.493750 0.0
2.957143 2.493750 0.0
3.000000 2.493750 0.0
1.500000 2.537500 0.0
1.542857 2.537500 0.0
1.585714 2.537500 0.0
1.628571 2.537500 0.0
1.671429 2.537500 0.0
1.714286 2.537500 0.0
1.757143 2.537500 0.0
1.800000 2.537500 0.0
1.842857 2.537500 0.0
1.885714 2.537500 0.0
1.928571 2.537500 0.0
1.971429 2.537500 0.0
2.014286 2.537500 0.0
2.057143 2.537500 0.0
2.100000 2.537500 0.0
2.142857 2.537500 0.0
2.185714 2.537500 0.0
2.228571 2.537500 0.0
2.271429 2.537500 0.0
2.314286 2.537500 0.0
2.357143 2.537500 0.0
2.400000 2.537500 0.0
2.442857 2.537500 0.0
2.485714 2.537500 0.0
2.528571 2.537500 0.0
2.571429 2.537500 0.0
2.614286 2.537500 0.0
2.657143 2.537500 0.0
2.700000 2.537500 0.0
2.742857 2.537500 0.0
2.785714 2.537500 0.0
2.828571 2.537500 0.0
2.871429 2.537500 0.0
2.914286 2.537500 0.0
2.957143 2.537500 0.0
3.000000 2.537500 0.0
1.500000 2.581250 0.0
1.542857 2.581250 0.0
1.585714 2.581250 0.0
1.628571 2.581250 0.0
1.671429 2.581250 0.0
1.714286 2.581250 0.0
1.757143 2.581250 0.0
1.800000 2.581250 0.0
1.842857 2.581250 0.0
1.885714 2.581250 0.0
1.928571 2.581250 0.0
1.971429 2.581250 0.0
2.014286 2.581250 0.0
2.057143 2.581250 0.0
2.100000 2.581250 0.0
2.142857 2.581250 0.0
2.185714 2.581250 0.0
2.228571 2.581250 0.0
2.271429 2.581250 0.0
2.314286 2.581250 0.0
2.357143 2.581250 0.0
2.400000 2.581250 0.0
2.442857 2.581250 0.0
2.485714 2.581250 0.0
2.528571 2.581250 0.0
2.571429 2.581250 0.0
2.614286 2.581250 0.0
2.657143 2.581250 0.0
2.700000 2.581250 0.0
2.742857 2.581250 0.0
2.785714 2.581250 0.0
2.828571 2.581250 0.0
2.871429 2.581250 0.0
2.914286 2.581250 0.0
2.957143 2.581250 0.0
3.000000 2.581250 0.0
1.500000 2.625000 0.0
1.542857 2.625000 0.0
1.585714 2.625000 0.0
1.628571 2.625000 0.0
1.671429 2.625000 0.0
1.714286 2.625000 0.0
1.757143 2.625000 0.0
1.800000 2.625000 0.0
1.842857 2.625000 0.0
1.885714 2.625000 0.0
1.928571 2.625000 0.0
1.971429 2.625000 0.0
2.014286 2.625000 0.0
2.057143 2.625000 0.0
2.100000 2.625000 0.0
2.142857 2.625000 0.0
2.185714 2.625000 0.0
2.228571 2.625000 0.0
2.271429 2.625000 0.0
2.314286 2.625000 0.0
2.357143 2.625000 0.0
2.400000 2.625000 0.0
2.442857 2.625000 0.0
2.485714 2.625000 0.0
2.528571 2.625000 0.0
2.571429 2.625000 0.0
2.614286 2.625000 0.0
2.657143 2.625000 0.0
2.700000 2.625000 0.0
2.742857 2.625000 0.0
2.785714 2.625000 0.0
2.828571 2.625000 0.0
2.871429 2.625000 0.0
2.914286 2.625000 0.0
2.957143 2.625000 0.0
3.000000 2.625000 0.0
</DataArray></Points>
<PointData>
<DataArray NumberOfComponents="1" format="ascii" type ="Float32" Name="phi">
-0.311361
-0.305841
-0.291534
-0.271277
-0.245535
-0.215396
-0.182262
-0.147168
-0.110741
-0.073265
-0.033679
0.008416
0.050088
0.090617
0.131465
0.172559
0.213832
0.255248
0.296788
0.338435
0.380165
0.421967
0.463840
0.505784
0.547790
0.589846
0.631962
0.674227
0.712554
0.738201
0.748144
0.749548
0.749474
0.749399
0.749341
0.738379
-0.268344
-0.263595
-0.251307
-0.234034
-0.211887
-0.185152
-0.154858
-0.122026
-0.087471
-0.051804
-0.012813
0.027775
0.066890
0.106093
0.145831
0.186015
0.226533
0.267314
0.308315
0.349489
0.390791
0.432205
0.473728
0.515353
0.557059
0.598830
0.640424
0.676364
0.698224
0.705409
0.705923
0.705818
0.705727
0.705651
0.705592
0.705567
-0.225123
-0.220982
-0.210118
-0.194892
-0.175571
-0.151945
-0.124535
-0.094211
-0.061535
-0.026587
0.011307
0.049504
0.086651
0.124547
0.163071
0.202154
0.241701
0.281630
0.321890
0.362424
0.403163
0.444080
0.485168
0.526400
0.567741
0.607866
0.640113
0.657557
0.662283
0.662310
0.662180
0.662070
0.661979
0.661902
0.661842
0.661817
-0.181742
-0.178144
-0.168413
-0.154621
-0.137385
-0.116385
-0.091576
-0.063630
-0.032580
0.002048
0.038047
0.073425
0.109069
0.145610
0.182894
0.220832
0.259323
0.298280
0.337661
0.377410
0.417446
0.457734
0.498381
0.539231
0.576817
0.603865
0.616319
0.618853
0.618721
0.618564
0.618433
0.618323
0.618230
0.618153
0.618092
0.618067
-0.138234
-0.135139
-0.126373
-0.113671
-0.097938
-0.079080
-0.056555
-0.030165
0.000032
0.033067
0.066362
0.099608
0.133810
0.168949
0.204949
0.241715
0.279115
0.317064
0.355533
0.394444
0.433709
0.473275
0.512884
0.546393
0.567042
0.574720
0.575385
0.575165
0.574976
0.574818
0.574686
0.574575
0.574482
0.574404
0.574343
0.574317
-0.094632
-0.092011
-0.084091
-0.072315
-0.057684
-0.040032
-0.018787
0.006554
0.034983
0.064957
0.095835
0.127712
0.160563
0.194365
0.229094
0.264670
0.300940
0.337827
0.375329
0.413365
0.451812
0.487728
0.514740
0.528674
0.532125
0.531914
0.531646
0.531420
0.531230
0.531072
0.530939
0.530827
0.530733
0.530655
0.530593
0.530567
-0.050983
-0.048808
-0.041627
-0.030043
-0.015508
0.001701
0.021570
0.044389
0.069986
0.097503
0.126637
0.157175
0.188806
0.221439
0.255040
0.289481
0.324624
0.360494
0.397037
0.433156
0.462547
0.480892
0.488302
0.488854
0.488487
0.488170
0.487901
0.487674
0.487484
0.487324
0.487191
0.487079
0.486984
0.486905
0.486843
0.486817
-0.005844
-0.003958
0.002564
0.013712
0.027584
0.043597
0.061714
0.081957
0.105260
0.131152
0.158797
0.187973
0.218386
0.249917
0.282463
0.315813
0.349877
0.384697
0.414164
0.434161
0.444273
0.446014
0.445547
0.445115
0.444743
0.444425
0.444155
0.443927
0.443737
0.443577
0.443443
0.443330
0.443236
0.443156
0.443094
0.443068
0.039318
0.041056
0.046964
0.057013
0.069545
0.084163
0.101203
0.120338
0.141893
0.166001
0.192169
0.219992
0.249246
0.279696
0.311136
0.343503
0.370790
0.390119
0.401168
0.403469
0.402875
0.402303
0.401804
0.401371
0.400998
0.400679
0.400408
0.400180
0.399989
0.399829
0.399695
0.399582
0.399486
0.399406
0.399344
0.399318
0.083033
0.084634
0.089994
0.099273
0.111200
0.125070
0.141139
0.159273
0.179489
0.202013
0.226709
0.253192
0.281246
0.309766
0.332774
0.349537
0.359549
0.361301
0.360517
0.359783
0.359133
0.358560
0.358060
0.357626
0.357252
0.356932
0.356661
0.356433
0.356241
0.356081
0.355946
0.355833
0.355737
0.355657
0.355594
0.355568
0.126762
0.128248
0.133145
0.141742
0.153054
0.166252
0.181482
0.198693
0.217827
0.239007
0.262295
0.283535
0.299354
0.312298
0.319272
0.319523
0.318515
0.317600
0.316777
0.316041
0.315390
0.314816
0.314315
0.313880
0.313505
0.313185
0.312914
0.312685
0.312493
0.312332
0.312197
0.312084
0.311988
0.311907
0.311844
0.311818
0.170501
0.171886
0.176386
0.184363
0.195076
0.207670
0.222163
0.237570
0.250028
0.259815
0.270350
0.277945
0.279365
0.278101
0.276898
0.275790
0.274778
0.273861
0.273036
0.272299
0.271646
0.271071
0.270569
0.270133
0.269758
0.269438
0.269166
0.268937
0.268744
0.268583
0.268448
0.268334
0.268238
0.268158
0.268094
0.268068
0.209932
0.210521
0.212444
0.215918
0.220643
0.226215
0.232635
0.238946
0.241334
0.240057
0.238521
0.237053
0.235667
0.234369
0.233164
0.232054
0.231040
0.230121
0.229294
0.228556
0.227902
0.227326
0.226823
0.226386
0.226011
0.225690
0.225417
0.225188
0.224995
0.224834
0.224699
0.224585
0.224488
0.224408
0.224345
0.224318
0.205546
0.205417
0.204978
0.204249
0.203282
0.202129
0.200830
0.199410
0.197895
0.196334
0.194797
0.193327
0.191938
0.190638
0.189430
0.188318
0.187301
0.186380
0.185552
0.184812
0.184157
0.183580
0.183076
0.182639
0.182263
0.181941
0.181669
0.181439
0.181246
0.181085
0.180949
0.180835
0.180739
0.180658
0.180595
0.180568
0.161531
0.161530
0.161223
0.160499
0.159539
0.158392
0.157099
0.155685
0.154173
0.152612
0.151073
0.149601
0.148210
0.146906
0.145696
0.144581
0.143563
0.142640
0.141809
0.141068
0.140412
0.139834
0.139329
0.138891
0.138515
0.138193
0.137920
0.137690
0.137497
0.137335
0.137200
0.137085
0.136989
0.136908
0.136845
0.136818
0.117300
0.117543
0.117482
0.116762
0.115807
0.114662
0.113371
0.111960
0.110451
0.108890
0.107349
0.105875
0.104481
0.103175
0.101962
0.100845
0.099824
0.098899
0.098067
0.097324
0.096666
0.096087
0.095582
0.095143
0.094766
0.094444
0.094171
0.093940
0.093747
0.093585
0.093450
0.093336
0.093239
0.093158
0.093095
0.093068
0.073007
0.073542
0.073775
0.073057
0.072102
0.070959
0.069668
0.068257
0.066746
0.065183
0.063637
0.062157
0.060758
0.059447
0.058230
0.057109
0.056084
0.055156
0.054322
0.053577
0.052918
0.052338
0.051831
0.051392
0.051015
0.050692
0.050419
0.050189
0.049995
0.049834
0.049698
0.049584
0.049488
0.049407
0.049344
0.049317
0.029026
0.029304
0.029298
0.028623
0.027724
0.026645
0.025426
0.024091
0.022649
0.021144
0.019657
0.018234
0.016887
0.015624
0.014449
0.013366
0.012374
0.011473
0.010661
0.009933
0.009287
0.008716
0.008216
0.007779
0.007402
0.007078
0.006800
0.006564
0.006364
0.006195
0.006050
0.005926
0.005820
0.005730
0.005663
0.005637
-0.015626
-0.015738
-0.016090
-0.016660
-0.017425
-0.018347
-0.019396
-0.020557
-0.021833
-0.023187
-0.024537
-0.025838
-0.027078
-0.028251
-0.029354
-0.030383
-0.031337
-0.032209
-0.032999
-0.033708
-0.034341
-0.034903
-0.035397
-0.035831
-0.036208
-0.036535
-0.036816
-0.037057
-0.037264
-0.037442
-0.037596
-0.037730
-0.037847
-0.037946
-0.038016
-0.038042
-0.060268
-0.060372
-0.060688
-0.061197
-0.061883
-0.062714
-0.063665
-0.064730
-0.065912
-0.067180
-0.068459
-0.069702
-0.070894
-0.072032
-0.073109
-0.074126
-0.075077
-0.075951
-0.076742
-0.077453
-0.078087
-0.078649
-0.079145
-0.079579
-0.079957
-0.080284
-0.080565
-0.080807
-0.081014
-0.081192
-0.081346
-0.081480
-0.081597
-0.081696
-0.081766
-0.081792
-0.103988
-0.104092
-0.104409
-0.104917
-0.105602
-0.106432
-0.107384
-0.108448
-0.109631
-0.110900
-0.112183
-0.113429
-0.114625
-0.115765
-0.116846
-0.117864
-0.118817
-0.119693
-0.120485
-0.121197
-0.121832
-0.122396
-0.122892
-0.123327
-0.123705
-0.124032
-0.124314
-0.124556
-0.124763
-0.124941
-0.125095
-0.125229
-0.125347
-0.125446
-0.125516
-0.114604
</DataArray>
<DataArray NumberOfComponents="1" format="ascii" type ="Float32" Name="u">
0.000155
0.000143
0.000131
0.000127
0.000140
0.000187
0.000317
0.000637
0.001357
0.002836
0.005626
0.010592
0.011954
0.011361
0.010098
0.008728
0.007445
0.006306
0.005324
0.004491
0.003792
0.003211
0.002729
0.002331
0.002002
0.001730
0.001507
0.001324
0.001176
0.001058
0.000966
0.000899
0.000853
0.000826
0.000815
0.000815
0.000185
0.000164
0.000149
0.000160
0.000219
0.000357
0.000651
0.001259
0.002490
0.004845
0.009222
0.013703
0.013985
0.012846
0.011331
0.009827
0.008457
0.007249
0.006203
0.005308
0.004548
0.003906
0.003368
0.002918
0.002543
0.002231
0.001972
0.001760
0.001587
0.001447
0.001338
0.001256
0.001196
0.001156
0.001132
0.001132
0.000198
0.000181
0.000184
0.000252
0.000428
0.000759
0.001354
0.002402
0.004397
0.008310
0.013544
0.015923
0.015301
0.013798
0.012143
0.010580
0.009176
0.007943
0.006871
0.005946
0.005154
0.004479
0.003906
0.003423
0.003016
0.002675
0.002390
0.002155
0.001962
0.001806
0.001684
0.001590
0.001522
0.001478
0.001456
0.001456
0.000176
0.000210
0.000289
0.000499
0.000933
0.001625
0.002737
0.004472
0.008047
0.012946
0.016588
0.017070
0.015867
0.014191
0.012508
0.010964
0.009588
0.008378
0.007320
0.006401
0.005606
0.004923
0.004337
0.003837
0.003413
0.003055
0.002754
0.002504
0.002298
0.002131
0.001999
0.001898
0.001826
0.001780
0.001760
0.001760
0.000118
0.000304
0.000562
0.001042
0.001990
0.003279
0.005139
0.008305
0.012757
0.016426
0.017812
0.017211
0.015723
0.014048
0.012449
0.010999
0.009709
0.008567
0.007561
0.006679
0.005909
0.005239
0.004660
0.004161
0.003733
0.003370
0.003062
0.002804
0.002591
0.002417
0.002280
0.002175
0.002101
0.002055
0.002035
0.002035
0.000030
0.000559
0.001153
0.001974
0.003841
0.006090
0.008849
0.012713
0.015902
0.017584
0.017605
0.016509
0.015006
0.013473
0.012043
0.010747
0.009584
0.008545
0.007620
0.006799
0.006074
0.005437
0.004880
0.004396
0.003978
0.003619
0.003313
0.003055
0.002840
0.002665
0.002525
0.002420
0.002345
0.002299
0.002279
0.002279
-0.000056
0.001144
0.002445
0.003995
0.006366
0.009118
0.012201
0.014939
0.016518
0.016971
0.016401
0.015246
0.013919
0.012616
0.011402
0.010289
0.009277
0.008360
0.007532
0.006788
0.006123
0.005532
0.005009
0.004551
0.004151
0.003805
0.003508
0.003256
0.003045
0.002872
0.002735
0.002630
0.002556
0.002511
0.002491
0.002491
-0.000107
0.001810
0.003895
0.006251
0.008354
0.010691
0.013105
0.014696
0.015458
0.015408
0.014737
0.013751
0.012681
0.011630
0.010636
0.009709
0.008850
0.008059
0.007333
0.006673
0.006076
0.005539
0.005059
0.004634
0.004260
0.003933
0.003651
0.003411
0.003208
0.003041
0.002908
0.002806
0.002734
0.002690
0.002671
0.002671
-0.000077
0.002164
0.004507
0.006913
0.008758
0.010610
0.012245
0.013319
0.013741
0.013581
0.013023
0.012267
0.011447
0.010626
0.009830
0.009071
0.008355
0.007683
0.007058
0.006482
0.005955
0.005475
0.005043
0.004656
0.004312
0.004010
0.003747
0.003522
0.003331
0.003173
0.003046
0.002949
0.002880
0.002838
0.002819
0.002819
-0.000016
0.002191
0.004383
0.006439
0.008135
0.009685
0.010910
0.011693
0.011984
0.011858
0.011456
0.010907
0.010294
0.009662
0.009032
0.008418
0.007827
0.007264
0.006733
0.006237
0.005778
0.005356
0.004973
0.004626
0.004316
0.004042
0.003801
0.003593
0.003417
0.003270
0.003152
0.003061
0.002997
0.002957
0.002939
0.002939
-0.000013
0.002007
0.003960
0.005742
0.007261
0.008556
0.009537
0.010156
0.010403
0.010346
0.010081
0.009694
0.009242
0.008759
0.008265
0.007772
0.007289
0.006822
0.006377
0.005956
0.005562
0.005196
0.004861
0.004556
0.004280
0.004035
0.003819
0.003630
0.003470
0.003336
0.003227
0.003144
0.003085
0.003048
0.003031
0.003031
-0.000037
0.001759
0.003475
0.005028
0.006361
0.007459
0.008279
0.008803
0.009041
0.009045
0.008884
0.008618
0.008288
0.007922
0.007537
0.007145
0.006755
0.006373
0.006004
0.005651
0.005318
0.005006
0.004718
0.004453
0.004213
0.003997
0.003806
0.003639
0.003495
0.003375
0.003277
0.003202
0.003148
0.003115
0.003099
0.003099
-0.000062
0.001511
0.003009
0.004363
0.005526
0.006473
0.007181
0.007643
0.007878
0.007925
0.007837
0.007659
0.007422
0.007148
0.006853
0.006546
0.006236
0.005929
0.005628
0.005337
0.005060
0.004799
0.004555
0.004329
0.004123
0.003937
0.003771
0.003625
0.003499
0.003393
0.003307
0.003241
0.003193
0.003163
0.003149
0.003149
-0.000081
0.001287
0.002592
0.003774
0.004793
0.005622
0.006248
0.006666
0.006893
0.006963
0.006922
0.006806
0.006640
0.006441
0.006221
0.005988
0.005747
0.005505
0.005266
0.005032
0.004807
0.004592
0.004390
0.004202
0.004028
0.003871
0.003729
0.003604
0.003496
0.003405
0.003330
0.003272
0.003230
0.003204
0.003191
0.003191
-0.000095
0.001097
0.002237
0.003277
0.004180
0.004922
0.005488
0.005872
0.006083
0.006153
0.006137
0.006066
0.005958
0.005822
0.005667
0.005497
0.005319
0.005136
0.004952
0.004769
0.004591
0.004419
0.004256
0.004102
0.003959
0.003829
0.003711
0.003606
0.003514
0.003437
0.003373
0.003324
0.003288
0.003265
0.003254
0.003254
-0.000105
0.000944
0.001955
0.002886
0.003707
0.004395
0.004932
0.005301
0.005488
0.005523
0.005514
0.005480
0.005424
0.005347
0.005252
0.005142
0.005020
0.004890
0.004755
0.004619
0.004483
0.004349
0.004220
0.004098
0.003983
0.003876
0.003779
0.003692
0.003615
0.003550
0.003497
0.003455
0.003424
0.003405
0.003395
0.003395
-0.000107
0.000835
0.001750
0.002606
0.003379
0.004053
0.004607
0.005015
0.005207
0.005137
0.005136
0.005151
0.005155
0.005139
0.005103
0.005049
0.004979
0.004898
0.004807
0.004711
0.004611
0.004510
0.004411
0.004314
0.004221
0.004134
0.004054
0.003981
0.003917
0.003861
0.003815
0.003779
0.003753
0.003737
0.003728
0.003728
-0.000089
0.000765
0.001599
0.002388
0.003115
0.003767
0.004331
0.004785
0.005058
0.005072
0.005171
0.005274
0.005353
0.005403
0.005425
0.005422
0.005398
0.005356
0.005301
0.005236
0.005164
0.005087
0.005007
0.004927
0.004849
0.004774
0.004704
0.004639
0.004582
0.004531
0.004489
0.004456
0.004433
0.004418
0.004409
0.004409
-0.000051
0.000720
0.001469
0.002174
0.002817
0.003386
0.003876