<VTKFile type="StructuredGrid" version="0.1" byte_order="LittleEndian">
<StructuredGrid WholeExtent="1 71 1 81 0 0">
<Piece Extent="36 71 1 21 0 0">
<PointData></PointData>
<CellData></CellData>
<Points>
<DataArray NumberOfComponents="3" format="ascii" type ="Float32" Name="mesh">
1.500000 0.000000 0.0
1.542857 0.000000 0.0
1.585714 0.000000 0.0
1.628571 0.000000 0.0
1.671429 0.000000 0.0
1.714286 0.000000 0.0
1.757143 0.000000 0.0
1.800000 0.000000 0.0
1.842857 0.000000 0.0
1.885714 0.000000 0.0
1.928571 0.000000 0.0
1.971429 0.000000 0.0
2.014286 0.000000 0.0
2.057143 0.000000 0.0
2.100000 0.000000 0.0
2.142857 0.000000 0.0
2.185714 0.000000 0.0
2.228571 0.000000 0.0
2.271429 0.000000 0.0
2.314286 0.000000 0.0
2.357143 0.000000 0.0
2.400000 0.000000 0.0
2.442857 0.000000 0.0
2.485714 0.000000 0.0
2.528571 0.000000 0.0
2.571429 0.000000 0.0
2.614286 0.000000 0.0
2.657143 0.000000 0.0
2.700000 0.000000 0.0
2.742857 0.000000 0.0
2.785714 0.000000 0.0
2.828571 0.000000 0.0
2.871429 0.000000 0.0
2.914286 0.000000 0.0
2.957143 0.000000 0.0
3.000000 0.000000 0.0
1.500000 0.043750 0.0
1.542857 0.043750 0.0
1.585714 0.043750 0.0
1.628571 0.043750 0.0
1.671429 0.043750 0.0
1.714286 0.043750 0.0
1.757143 0.043750 0.0
1.800000 0.043750 0.0
1.842857 0.043750 0.0
1.885714 0.043750 0.0
1.928571 0.043750 0.0
1.971429 0.043750 0.0
2.014286 0.043750 0.0
2.057143 0.043750 0.0
2.100000 0.043750 0.0
2.142857 0.043750 0.0
2.185714 0.043750 0.0
2.228571 0.043750 0.0
2.271429 0.043750 0.0
2.314286 0.043750 0.0
2.357143 0.043750 0.0
2.400000 0.043750 0.0
2.442857 0.043750 0.0
2.485714 0.043750 0.0
2.528571 0.043750 0.0
2.571429 0.043750 0.0
2.614286 0.043750 0.0
2.657143 0.043750 0.0
2.700000 0.043750 0.0
2.742857 0.043750 0.0
2.785714 0.043750 0.0
2.828571 0.043750 0.0
2.871429 0.043750 0.0
2.914286 0.043750 0.0
2.957143 0.043750 0.0
3.000000 0.043750 0.0
1.500000 0.087500 0.0
1.542857 0.087500 0.0
1.585714 0.087500 0.0
1.628571 0.087500 0.0
1.671429 0.087500 0.0
1.714286 0.087500 0.0
1.757143 0.087500 0.0
1.800000 0.087500 0.0
1.842857 0.087500 0.0
1.885714 0.087500 0.0
1.928571 0.087500 0.0
1.971429 0.087500 0.0
2.014286 0.087500 0.0
2.057143 0.087500 0.0
2.100000 0.087500 0.0
2.142857 0.087500 0.0
2.185714 0.087500 0.0
2.228571 0.087500 0.0
2.271429 0.087500 0.0
2.314286 0.087500 0.0
2.357143 0.087500 0.0
2.400000 0.087500 0.0
2.442857 0.087500 0.0
2.485714 0.087500 0.0
2.528571 0.087500 0.0
2.571429 0.087500 0.0
2.614286 0.087500 0.0
2.657143 0.087500 0.0
2.700000 0.087500 0.0
2.742857 0.087500 0.0
2.785714 0.087500 0.0
2.828571 0.087500 0.0
2.871429 0.087500 0.0
2.914286 0.087500 0.0
2.957143 0.087500 0.0
3.000000 0.087500 0.0
1.500000 0.131250 0.0
1.542857 0.131250 0.0
1.585714 0.131250 0.0
1.628571 0.131250 0.0
1.671429 0.131250 0.0
1.714286 0.131250 0.0
1.757143 0.131250 0.0
1.800000 0.131250 0.0
1.842857 0.131250 0.0
1.885714 0.131250 0.0
1.928571 0.131250 0.0
1.971429 0.131250 0.0
2.014286 0.131250 0.0
2.057143 0.131250 0.0
2.100000 0.131250 0.0
2.142857 0.131250 0.0
2.185714 0.131250 0.0
2.228571 0.131250 0.0
2.271429 0.131250 0.0
2.314286 0.131250 0.0
2.357143 0.131250 0.0
2.400000 0.131250 0.0
2.442857 0.131250 0.0
2.485714 0.131250 0.0
2.528571 0.131250 0.0
2.571429 0.131250 0.0
2.614286 0.131250 0.0
2.657143 0.131250 0.0
2.700000 0.131250 0.0
2.742857 0.131250 0.0
2.785714 0.131250 0.0
2.828571 0.131250 0.0
2.871429 0.131250 0.0
2.914286 0.131250 0.0
2.957143 0.131250 0.0
3.000000 0.131250 0.0
1.500000 0.175000 0.0
1.542857 0.175000 0.0
1.585714 0.175000 0.0
1.628571 0.175000 0.0
1.671429 0.175000 0.0
1.714286 0.175000 0.0
1.757143 0.175000 0.0
1.800000 0.175000 0.0
1.842857 0.175000 0.0
1.885714 0.175000 0.0
1.928571 0.175000 0.0
1.971429 0.175000 0.0
2.014286 0.175000 0.0
2.057143 0.175000 0.0
2.100000 0.175000 0.0
2.142857 0.175000 0.0
2.185714 0.175000 0.0
2.228571 0.175000 0.0
2.271429 0.175000 0.0
2.314286 0.175000 0.0
2.357143 0.175000 0.0
2.400000 0.175000 0.0
2.442857 0.175000 0.0
2.485714 0.175000 0.0
2.528571 0.175000 0.0
2.571429 0.175000 0.0
2.614286 0.175000 0.0
2.657143 0.175000 0.0
2.700000 0.175000 0.0
2.742857 0.175000 0.0
2.785714 0.175000 0.0
2.828571 0.175000 0.0
2.871429 0.175000 0.0
2.914286 0.175000 0.0
2.957143 0.175000 0.0
3.000000 0.175000 0.0
1.500000 0.218750 0.0
1.542857 0.218750 0.0
1.585714 0.218750 0.0
1.628571 0.218750 0.0
1.671429 0.218750 0.0
1.714286 0.218750 0.0
1.757143 0.218750 0.0
1.800000 0.218750 0.0
1.842857 0.218750 0.0
1.885714 0.218750 0.0
1.928571 0.218750 0.0
1.971429 0.218750 0.0
2.014286 0.218750 0.0
2.057143 0.218750 0.0
2.100000 0.218750 0.0
2.142857 0.218750 0.0
2.185714 0.218750 0.0
2.228571 0.218750 0.0
2.271429 0.218750 0.0
2.314286 0.218750 0.0
2.357143 0.218750 0.0
2.400000 0.218750 0.0
2.442857 0.218750 0.0
2.485714 0.218750 0.0
2.528571 0.218750 0.0
2.571429 0.218750 0.0
2.614286 0.218750 0.0
2.657143 0.218750 0.0
2.700000 0.218750 0.0
2.742857 0.218750 0.0
2.785714 0.218750 0.0
2.828571 0.218750 0.0
2.871429 0.218750 0.0
2.914286 0.218750 0.0
2.957143 0.218750 0.0
3.000000 0.218750 0.0
1.500000 0.262500 0.0
1.542857 0.262500 0.0
1.585714 0.262500 0.0
1.628571 0.262500 0.0
1.671429 0.262500 0.0
1.714286 0.262500 0.0
1.757143 0.262500 0.0
1.800000 0.262500 0.0
1.842857 0.262500 0.0
1.885714 0.262500 0.0
1.928571 0.262500 0.0
1.971429 0.262500 0.0
2.014286 0.262500 0.0
2.057143 0.262500 0.0
2.100000 0.262500 0.0
2.142857 0.262500 0.0
2.185714 0.262500 0.0
2.228571 0.262500 0.0
2.271429 0.262500 0.0
2.314286 0.262500 0.0
2.357143 0.262500 0.0
2.400000 0.262500 0.0
2.442857 0.262500 0.0
2.485714 0.262500 0.0
2.528571 0.262500 0.0
2.571429 0.262500 0.0
2.614286 0.262500 0.0
2.657143 0.262500 0.0
2.700000 0.262500 0.0
2.742857 0.262500 0.0
2.785714 0.262500 0.0
2.828571 0.262500 0.0
2.871429 0.262500 0.0
2.914286 0.262500 0.0
2.957143 0.262500 0.0
3.000000 0.262500 0.0
1.500000 0.306250 0.0
1.542857 0.306250 0.0
1.585714 0.306250 0.0
1.628571 0.306250 0.0
1.671429 0.306250 0.0
1.714286 0.306250 0.0
1.757143 0.306250 0.0
1.800000 0.306250 0.0
1.842857 0.306250 0.0
1.885714 0.306250 0.0
1.928571 0.306250 0.0
1.971429 0.306250 0.0
2.014286 0.306250 0.0
2.057143 0.306250 0.0
2.100000 0.306250 0.0
2.142857 0.306250 0.0
2.185714 0.306250 0.0
2.228571 0.306250 0.0
2.271429 0.306250 0.0
2.314286 0.306250 0.0
2.357143 0.306250 0.0
2.400000 0.306250 0.0
2.442857 0.306250 0.0
2.485714 0.306250 0.0
2.528571 0.306250 0.0
2.571429 0.306250 0.0
2.614286 0.306250 0.0
2.657143 0.306250 0.0
2.700000 0.306250 0.0
2.742857 0.306250 0.0
2.785714 0.306250 0.0
2.828571 0.306250 0.0
2.871429 0.306250 0.0
2.914286 0.306250 0.0
2.957143 0.306250 0.0
3.000000 0.306250 0.0
1.500000 0.350000 0.0
1.542857 0.350000 0.0
1.585714 0.350000 0.0
1.628571 0.350000 0.0
1.671429 0.350000 0.0
1.714286 0.350000 0.0
1.757143 0.350000 0.0
1.800000 0.350000 0.0
1.842857 0.350000 0.0
1.885714 0.350000 0.0
1.928571 0.350000 0.0
1.971429 0.350000 0.0
2.014286 0.350000 0.0
2.057143 0.350000 0.0
2.100000 0.350000 0.0
2.142857 0.350000 0.0
2.185714 0.350000 0.0
2.228571 0.350000 0.0
2.271429 0.350000 0.0
2.314286 0.350000 0.0
2.357143 0.350000 0.0
2.400000 0.350000 0.0
2.442857 0.350000 0.0
2.485714 0.350000 0.0
2.528571 0.350000 0.0
2.571429 0.350000 0.0
2.614286 0.350000 0.0
2.657143 0.350000 0.0
2.700000 0.350000 0.0
2.742857 0.350000 0.0
2.785714 0.350000 0.0
2.828571 0.350000 0.0
2.871429 0.350000 0.0
2.914286 0.350000 0.0
2.957143 0.350000 0.0
3.000000 0.350000 0.0
1.500000 0.393750 0.0
1.542857 0.393750 0.0
1.585714 0.393750 0.0
1.628571 0.393750 0.0
1.671429 0.393750 0.0
1.714286 0.393750 0.0
1.757143 0.393750 0.0
1.800000 0.393750 0.0
1.842857 0.393750 0.0
1.885714 0.393750 0.0
1.928571 0.393750 0.0
1.971429 0.393750 0.0
2.014286 0.393750 0.0
2.057143 0.393750 0.0
2.100000 0.393750 0.0
2.142857 0.393750 0.0
2.185714 0.393750 0.0
2.228571 0.393750 0.0
2.271429 0.393750 0.0
2.314286 0.393750 0.0
2.357143 0.393750 0.0
2.400000 0.393750 0.0
2.442857 0.393750 0.0
2.485714 0.393750 0.0
2.528571 0.393750 0.0
2.571429 0.393750 0.0
2.614286 0.393750 0.0
2.657143 0.393750 0.0
2.700000 0.393750 0.0
2.742857 0.393750 0.0
2.785714 0.393750 0.0
2.828571 0.393750 0.0
2.871429 0.393750 0.0
2.914286 0.393750 0.0
2.957143 0.393750 0.0
3.000000 0.393750 0.0
1.500000 0.437500 0.0
1.542857 0.437500 0.0
1.585714 0.437500 0.0
1.628571 0.437500 0.0
1.671429 0.437500 0.0
1.714286 0.437500 0.0
1.757143 0.437500 0.0
1.800000 0.437500 0.0
1.842857 0.437500 0.0
1.885714 0.437500 0.0
1.928571 0.437500 0.0
1.971429 0.437500 0.0
2.014286 0.437500 0.0
2.057143 0.437500 0.0
2.100000 0.437500 0.0
2.142857 0.437500 0.0
2.185714 0.437500 0.0
2.228571 0.437500 0.0
2.271429 0.437500 0.0
2.314286 0.437500 0.0
2.357143 0.437500 0.0
2.400000 0.437500 0.0
2.442857 0.437500 0.0
2.485714 0.437500 0.0
2.528571 0.437500 0.0
2.571429 0.437500 0.0
2.614286 0.437500 0.0
2.657143 0.437500 0.0
2.700000 0.437500 0.0
2.742857 0.437500 0.0
2.785714 0.437500 0.0
2.828571 0.437500 0.0
2.871429 0.437500 0.0
2.914286 0.437500 0.0
2.957143 0.437500 0.0
3.000000 0.437500 0.0
1.500000 0.481250 0.0
1.542857 0.481250 0.0
1.585714 0.481250 0.0
1.628571 0.481250 0.0
1.671429 0.481250 0.0
1.714286 0.481250 0.0
1.757143 0.481250 0.0
1.800000 0.481250 0.0
1.842857 0.481250 0.0
1.885714 0.481250 0.0
1.928571 0.481250 0.0
1.971429 0.481250 0.0
2.014286 0.481250 0.0
2.057143 0.481250 0.0
2.100000 0.481250 0.0
2.142857 0.481250 0.0
2.185714 0.481250 0.0
2.228571 0.481250 0.0
2.271429 0.481250 0.0
2.314286 0.481250 0.0
2.357143 0.481250 0.0
2.400000 0.481250 0.0
2.442857 0.481250 0.0
2.485714 0.481250 0.0
2.528571 0.481250 0.0
2.571429 0.481250 0.0
2.614286 0.481250 0.0
2.657143 0.481250 0.0
2.700000 0.481250 0.0
2.742857 0.481250 0.0
2.785714 0.481250 0.0
2.828571 0.481250 0.0
2.871429 0.481250 0.0
2.914286 0.481250 0.0
2.957143 0.481250 0.0
3.000000 0.481250 0.0
1.500000 0.525000 0.0
1.542857 0.525000 0.0
1.585714 0.525000 0.0
1.628571 0.525000 0.0
1.671429 0.525000 0.0
1.714286 0.525000 0.0
1.757143 0.525000 0.0
1.800000 0.525000 0.0
1.842857 0.525000 0.0
1.885714 0.525000 0.0
1.928571 0.525000 0.0
1.971429 0.525000 0.0
2.014286 0.525000 0.0
2.057143 0.525000 0.0
2.100000 0.525000 0.0
2.142857 0.525000 0.0
2.185714 0.525000 0.0
2.228571 0.525000 0.0
2.271429 0.525000 0.0
2.314286 0.525000 0.0
2.357143 0.525000 0.0
2.400000 0.525000 0.0
2.442857 0.525000 0.0
2.485714 0.525000 0.0
2.528571 0.525000 0.0
2.571429 0.525000 0.0
2.614286 0.525000 0.0
2.657143 0.525000 0.0
2.700000 0.525000 0.0
2.742857 0.525000 0.0
2.785714 0.525000 0.0
2.828571 0.525000 0.0
2.871429 0.525000 0.0
2.914286 0.525000 0.0
2.957143 0.525000 0.0
3.000000 0.525000 0.0
1.500000 0.568750 0.0
1.542857 0.568750 0.0
1.585714 0.568750 0.0
1.628571 0.568750 0.0
1.671429 0.568750 0.0
1.714286 0.568750 0.0
1.757143 0.568750 0.0
1.800000 0.568750 0.0
1.842857 0.568750 0.0
1.885714 0.568750 0.0
1.928571 0.568750 0.0
1.971429 0.568750 0.0
2.014286 0.568750 0.0
2.057143 0.568750 0.0
2.100000 0.568750 0.0
2.142857 0.568750 0.0
2.185714 0.568750 0.0
2.228571 0.568750 0.0
2.271429 0.568750 0.0
2.314286 0.568750 0.0
2.357143 0.568750 0.0
2.400000 0.568750 0.0
2.442857 0.568750 0.0
2.485714 0.568750 0.0
2.528571 0.568750 0.0
2.571429 0.568750 0.0
2.614286 0.568750 0.0
2.657143 0.568750 0.0
2.700000 0.568750 0.0
2.742857 0.568750 0.0
2.785714 0.568750 0.0
2.828571 0.568750 0.0
2.871429 0.568750 0.0
2.914286 0.568750 0.0
2.957143 0.568750 0.0
3.000000 0.568750 0.0
1.500000 0.612500 0.0
1.542857 0.612500 0.0
1.585714 0.612500 0.0
1.628571 0.612500 0.0
1.671429 0.612500 0.0
1.714286 0.612500 0.0
1.757143 0.612500 0.0
1.800000 0.612500 0.0
1.842857 0.612500 0.0
1.885714 0.612500 0.0
1.928571 0.612500 0.0
1.971429 0.612500 0.0
2.014286 0.612500 0.0
2.057143 0.612500 0.0
2.100000 0.612500 0.0
2.142857 0.612500 0.0
2.185714 0.612500 0.0
2.228571 0.612500 0.0
2.271429 0.612500 0.0
2.314286 0.612500 0.0
2.357143 0.612500 0.0
2.400000 0.612500 0.0
2.442857 0.612500 0.0
2.485714 0.612500 0.0
2.528571 0.612500 0.0
2.571429 0.612500 0.0
2.614286 0.612500 0.0
2.657143 0.612500 0.0
2.700000 0.612500 0.0
2.742857 0.612500 0.0
2.785714 0.612500 0.0
2.828571 0.612500 0.0
2.871429 0.612500 0.0
2.914286 0.612500 0.0
2.957143 0.612500 0.0
3.000000 0.612500 0.0
1.500000 0.656250 0.0
1.542857 0.656250 0.0
1.585714 0.656250 0.0
1.628571 0.656250 0.0
1.671429 0.656250 0.0
1.714286 0.656250 0.0
1.757143 0.656250 0.0
1.800000 0.656250 0.0
1.842857 0.656250 0.0
1.885714 0.656250 0.0
1.928571 0.656250 0.0
1.971429 0.656250 0.0
2.014286 0.656250 0.0
2.057143 0.656250 0.0
2.100000 0.656250 0.0
2.142857 0.656250 0.0
2.185714 0.656250 0.0
2.228571 0.656250 0.0
2.271429 0.656250 0.0
2.314286 0.656250 0.0
2.357143 0.656250 0.0
2.400000 0.656250 0.0
2.442857 0.656250 0.0
2.485714 0.656250 0.0
2.528571 0.656250 0.0
2.571429 0.656250 0.0
2.614286 0.656250 0.0
2.657143 0.656250 0.0
2.700000 0.656250 0.0
2.742857 0.656250 0.0
2.785714 0.656250 0.0
2.828571 0.656250 0.0
2.871429 0.656250 0.0
2.914286 0.656250 0.0
2.957143 0.656250 0.0
3.000000 0.656250 0.0
1.500000 0.700000 0.0
1.542857 0.700000 0.0
1.585714 0.700000 0.0
1.628571 0.700000 0.0
1.671429 0.700000 0.0
1.714286 0.700000 0.0
1.757143 0.700000 0.0
1.800000 0.700000 0.0
1.842857 0.700000 0.0
1.885714 0.700000 0.0
1.928571 0.700000 0.0
1.971429 0.700000 0.0
2.014286 0.700000 0.0
2.057143 0.700000 0.0
2.100000 0.700000 0.0
2.142857 0.700000 0.0
2.185714 0.700000 0.0
2.228571 0.700000 0.0
2.271429 0.700000 0.0
2.314286 0.700000 0.0
2.357143 0.700000 0.0
2.400000 0.700000 0.0
2.442857 0.700000 0.0
2.485714 0.700000 0.0
2.528571 0.700000 0.0
2.571429 0.700000 0.0
2.614286 0.700000 0.0
2.657143 0.700000 0.0
2.700000 0.700000 0.0
2.742857 0.700000 0.0
2.785714 0.700000 0.0
2.828571 0.700000 0.0
2.871429 0.700000 0.0
2.914286 0.700000 0.0
2.957143 0.700000 0.0
3.000000 0.700000 0.0
1.500000 0.743750 0.0
1.542857 0.743750 0.0
1.585714 0.743750 0.0
1.628571 0.743750 0.0
1.671429 0.743750 0.0
1.714286 0.743750 0.0
1.757143 0.743750 0.0
1.800000 0.743750 0.0
1.842857 0.743750 0.0
1.885714 0.743750 0.0
1.928571 0.743750 0.0
1.971429 0.743750 0.0
2.014286 0.743750 0.0
2.057143 0.743750 0.0
2.100000 0.743750 0.0
2.142857 0.743750 0.0
2.185714 0.743750 0.0
2.228571 0.743750 0.0
2.271429 0.743750 0.0
2.314286 0.743750 0.0
2.357143 0.743750 0.0
2.400000 0.743750 0.0
2.442857 0.743750 0.0
2.485714 0.743750 0.0
2.528571 0.743750 0.0
2.571429 0.743750 0.0
2.614286 0.743750 0.0
2.657143 0.743750 0.0
2.700000 0.743750 0.0
2.742857 0.743750 0.0
2.785714 0.743750 0.0
2.828571 0.743750 0.0
2.871429 0.743750 0.0
2.914286 0.743750 0.0
2.957143 0.743750 0.0
3.000000 0.743750 0.0
1.500000 0.787500 0.0
1.542857 0.787500 0.0
1.585714 0.787500 0.0
1.628571 0.787500 0.0
1.671429 0.787500 0.0
1.714286 0.787500 0.0
1.757143 0.787500 0.0
1.800000 0.787500 0.0
1.842857 0.787500 0.0
1.885714 0.787500 0.0
1.928571 0.787500 0.0
1.971429 0.787500 0.0
2.014286 0.787500 0.0
2.057143 0.787500 0.0
2.100000 0.787500 0.0
2.142857 0.787500 0.0
2.185714 0.787500 0.0
2.228571 0.787500 0.0
2.271429 0.787500 0.0
2.314286 0.787500 0.0
2.357143 0.787500 0.0
2.400000 0.787500 0.0
2.442857 0.787500 0.0
2.485714 0.787500 0.0
2.528571 0.787500 0.0
2.571429 0.787500 0.0
2.614286 0.787500 0.0
2.657143 0.787500 0.0
2.700000 0.787500 0.0
2.742857 0.787500 0.0
2.785714 0.787500 0.0
2.828571 0.787500 0.0
2.871429 0.787500 0.0
2.914286 0.787500 0.0
2.957143 0.787500 0.0
3.000000 0.787500 0.0
1.500000 0.831250 0.0
1.542857 0.831250 0.0
1.585714 0.831250 0.0
1.628571 0.831250 0.0
1.671429 0.831250 0.0
1.714286 0.831250 0.0
1.757143 0.831250 0.0
1.800000 0.831250 0.0
1.842857 0.831250 0.0
1.885714 0.831250 0.0
1.928571 0.831250 0.0
1.971429 0.831250 0.0
2.014286 0.831250 0.0
2.057143 0.831250 0.0
2.100000 0.831250 0.0
2.142857 0.831250 0.0
2.185714 0.831250 0.0
2.228571 0.831250 0.0
2.271429 0.831250 0.0
2.314286 0.831250 0.0
2.357143 0.831250 0.0
2.400000 0.831250 0.0
2.442857 0.831250 0.0
2.485714 0.831250 0.0
2.528571 0.831250 0.0
2.571429 0.831250 0.0
2.614286 0.831250 0.0
2.657143 0.831250 0.0
2.700000 0.831250 0.0
2.742857 0.831250 0.0
2.785714 0.831250 0.0
2.828571 0.831250 0.0
2.871429 0.831250 0.0
2.914286 0.831250 0.0
2.957143 0.831250 0.0
3.000000 0.831250 0.0
1.500000 0.875000 0.0
1.542857 0.875000 0.0
1.585714 0.875000 0.0
1.628571 0.875000 0.0
1.671429 0.875000 0.0
1.714286 0.875000 0.0
1.757143 0.875000 0.0
1.800000 0.875000 0.0
1.842857 0.875000 0.0
1.885714 0.875000 0.0
1.928571 0.875000 0.0
1.971429 0.875000 0.0
2.014286 0.875000 0.0
2.057143 0.875000 0.0
2.100000 0.875000 0.0
2.142857 0.875000 0.0
2.185714 0.875000 0.0
2.228571 0.875000 0.0
2.271429 0.875000 0.0
2.314286 0.875000 0.0
2.357143 0.875000 0.0
2.400000 0.875000 0.0
2.442857 0.875000 0.0
2.485714 0.875000 0.0
2.528571 0.875000 0.0
2.571429 0.875000 0.0
2.614286 0.875000 0.0
2.657143 0.875000 0.0
2.700000 0.875000 0.0
2.742857 0.875000 0.0
2.785714 0.875000 0.0
2.828571 0.875000 0.0
2.871429 0.875000 0.0
2.914286 0.875000 0.0
2.957143 0.875000 0.0
3.000000 0.875000 0.0
</DataArray></Points>
<PointData>
<DataArray NumberOfComponents="1" format="ascii" type ="Float32" Name="phi">
1.170096
1.171285
1.173643
1.177013
1.181344
1.186630
1.192881
1.200112
1.208319
1.217484
1.227606
1.238669
1.250665
1.263594
1.277423
1.292092
1.307561
1.323822
1.340896
1.358796
1.377472
1.396861
1.416939
1.437745
1.459458
1.482074
1.505336
1.529108
1.553380
1.578168
1.603611
1.629841
1.656674
1.683893
1.711469
1.725344
1.148276
1.149482
1.151870
1.155281
1.159663
1.165013
1.171340
1.178663
1.186974
1.196247
1.206477
1.217656
1.229761
1.242790
1.256732
1.271547
1.287192
1.303648
1.320927
1.339044
1.357961
1.377609
1.397946
1.418978
1.440819
1.463553
1.487038
1.511091
1.535649
1.560704
1.586330
1.612672
1.639675
1.667145
1.694992
1.709003
1.104635
1.105876
1.108327
1.111820
1.116307
1.121788
1.128273
1.135784
1.144306
1.153801
1.164259
1.175685
1.188044
1.201306
1.215467
1.230532
1.246498
1.263333
1.281017
1.299565
1.318960
1.339132
1.360010
1.381547
1.403756
1.426734
1.450563
1.475137
1.500272
1.525884
1.551961
1.578585
1.605860
1.633767
1.662146
1.676426
1.060994
1.062272
1.064787
1.068366
1.072965
1.078582
1.085233
1.092937
1.101678
1.111407
1.122111
1.133804
1.146466
1.160038
1.174481
1.189802
1.206027
1.223170
1.241230
1.260191
1.280034
1.300719
1.322162
1.344282
1.367030
1.390399
1.414497
1.439423
1.465076
1.491270
1.517906
1.544970
1.572532
1.600728
1.629530
1.644058
1.017352
1.018669
1.021252
1.024921
1.029634
1.035394
1.042218
1.050124
1.059089
1.069063
1.080025
1.091991
1.104966
1.118900
1.133723
1.149400
1.165933
1.183361
1.201755
1.221114
1.241358
1.262463
1.284417
1.307132
1.330495
1.354445
1.378973
1.404177
1.430166
1.456864
1.484082
1.511709
1.539727
1.568211
1.597265
1.611943
0.973708
0.975066
0.977723
0.981486
0.986317
0.992224
0.999228
1.007343
1.016540
1.026767
1.037999
1.050245
1.063531
1.077833
1.093069
1.109176
1.126129
1.143933
1.162674
1.182439
1.203124
1.224616
1.246943
1.270137
1.294103
1.318690
1.343823
1.369485
1.395766
1.422786
1.450492
1.478697
1.507280
1.536222
1.565573
1.580362
0.930062
0.931465
0.934199
0.938063
0.943018
0.949077
0.956269
0.964601
0.974035
0.984523
0.996038
1.008578
1.022175
1.036836
1.052495
1.069063
1.086489
1.104754
1.123902
1.144078
1.165262
1.187258
1.209989
1.233522
1.257928
1.283111
1.308889
1.335168
1.361930
1.389254
1.417269
1.445949
1.475107
1.504615
1.534452
1.549451
0.886415
0.887865
0.890680
0.894650
0.899739
0.905961
0.913351
0.921910
0.931590
0.942345
0.954154
0.967015
0.980937
0.995941
1.012008
1.029049
1.046980
1.065758
1.085383
1.105975
1.127630
1.150206
1.173513
1.197493
1.222228
1.247815
1.274165
1.301089
1.328472
1.356291
1.384622
1.413603
1.443222
1.473308
1.503725
1.519007
0.842767
0.844266
0.847166
0.851248
0.856480
0.862881
0.870484
0.879287
0.889230
0.900266
0.912381
0.925592
0.939889
0.955245
0.971670
0.989150
1.007599
1.026928
1.047105
1.068165
1.090248
1.113364
1.137310
1.161922
1.187146
1.213063
1.239784
1.267254
1.295277
1.323718
1.352554
1.381857
1.411769
1.442318
1.473320
1.488899
0.799119
0.800669
0.803657
0.807855
0.813240
0.819833
0.827669
0.836733
0.846959
0.858300
0.870744
0.884321
0.899038
0.914816
0.931613
0.949461
0.968371
0.988265
1.009056
1.030701
1.053242
1.076799
1.101327
1.126613
1.152498
1.178937
1.206000
1.233815
1.262360
1.291435
1.320894
1.350710
1.380951
1.411796
1.443249
1.459101
0.755469
0.757074
0.760155
0.764475
0.770018
0.776817
0.784900
0.794239
0.804764
0.816434
0.829234
0.843188
0.858328
0.874592
0.891865
0.910123
0.929418
0.949805
0.971227
0.993557
1.016704
1.040708
1.065673
1.091550
1.118124
1.145236
1.172844
1.201012
1.229884
1.259466
1.289557
1.319999
1.350763
1.381936
1.413658
1.429670
0.711818
0.713483
0.716663
0.721111
0.726820
0.733834
0.742178
0.751803
0.762641
0.774658
0.787838
0.802187
0.817749
0.834502
0.852325
0.871126
0.890890
0.911697
0.933656
0.956680
0.980560
1.005183
1.030586
1.056877
1.084027
1.111830
1.140115
1.168843
1.198077
1.227978
1.258570
1.289649
1.321046
1.352738
1.384791
1.400924
0.668166
0.669894
0.673181
0.677767
0.683652
0.690893
0.699507
0.709429
0.720591
0.732972
0.746558
0.761332
0.777321
0.794548
0.812934
0.832359
0.852750
0.874095
0.896507
0.920099
0.944711
0.970087
0.996119
1.022843
1.050381
1.078737
1.107709
1.137117
1.166922
1.197191
1.228102
1.259688
1.291732
1.324065
1.356662
1.373028
0.624512
0.626308
0.629708
0.634442
0.640519
0.648001
0.656899
0.667129
0.678629
0.691389
0.705407
0.720658
0.737118
0.754798
0.773711
0.793777
0.814884
0.836944
0.859938
0.883991
0.909186
0.935308
0.962095
0.989456
1.017426
1.046147
1.075655
1.105751
1.136243
1.167090
1.198373
1.230284
1.262849
1.295843
1.329099
1.345785
0.580857
0.582725
0.586244
0.591135
0.597421
0.605169
0.614371
0.624930
0.636787
0.649941
0.664413
0.680194
0.697207
0.715392
0.734780
0.755423
0.777258
0.800123
0.823892
0.848535
0.874179
0.900879
0.928409
0.956521
0.985135
1.014291
1.044152
1.074780
1.105967
1.137514
1.169382
1.201664
1.234563
1.268101
1.302038
1.319067
0.537202
0.539147
0.542792
0.547848
0.554359
0.562399
0.571931
0.582847
0.595096
0.608672
0.623615
0.639943
0.657563
0.676367
0.696317
0.717476
0.739936
0.763601
0.788231
0.813667
0.839887
0.867014
0.895106
0.923952
0.953316
0.983124
1.013426
1.044405
1.076136
1.108395
1.140977
1.173848
1.207115
1.241008
1.275496
1.292850
0.493546
0.495574
0.499353
0.504584
0.511338
0.519690
0.529574
0.540873
0.553552
0.567604
0.583048
0.599913
0.618144
0.637640
0.658320
0.680133
0.703145
0.727457
0.752916
0.779226
0.806229
0.833914
0.862413
0.891807
0.921904
0.952470
0.983434
1.014859
1.046951
1.079777
1.113093
1.146693
1.180551
1.214804
1.249624
1.267187
0.449889
0.452006
0.455929
0.461349
0.468366
0.477050
0.487300
0.499003
0.512146
0.526731
0.542738
0.560154
0.578977
0.599177
0.620674
0.643340
0.667074
0.691944
0.718038
0.745165
0.773026
0.801480
0.830526
0.860318
0.890964
0.922277
0.954017
0.986118
1.018659
1.051863
1.085774
1.120127
1.154723
1.189551
1.224726
1.242425
0.406229
0.408443
0.412519
0.418144
0.425451
0.434489
0.445121
0.457252
0.470888
0.486052
0.502700
0.520747
0.540178
0.561046
0.583360
0.606960
0.631623
0.657233
0.683860
0.711589
0.740242
0.769537
0.799347
0.829687
0.860732
0.892614
0.925130
0.958032
0.991259
1.024913
1.059225
1.094199
1.129554
1.165114
1.200876
1.218812
0.362567
0.364885
0.369125
0.374972
0.382599
0.392019
0.403059
0.415647
0.429809
0.445586
0.462925
0.481706
0.501867
0.523435
0.546490
0.570980
0.596630
0.623179
0.650527
0.678760
0.707986
0.738058
0.768714
0.799830
0.831433
0.863730
0.896848
0.930558
0.964608
0.998951
1.033711
1.069110
1.105101
1.141407
1.177883
1.196160
0.318902
0.321333
0.325746
0.331835
0.339814
0.349650
0.361135
0.374225
0.388965
0.405384
0.423427
0.442998
0.464038
0.486487
0.510314
0.535555
0.562094
0.589616
0.617876
0.646810
0.676524
0.707164
0.738614
0.770603
0.803009
0.835876
0.869434
0.903782
0.938662
0.973837
1.009276
1.045120
1.081554
1.118490
1.155680
1.179675
</DataArray>
<DataArray NumberOfComponents="1" format="ascii" type ="Float32" Name="u">
0.000000
0.000000
0.000000
0.000000
0.000000
0.000000
0.000000
0.000000
0.000000
0.000000
0.000000
0.000000
0.000000
0.000000
0.000000
0.000000
0.000000
0.000000
0.000000
0.000000
0.000000
0.000000
0.000000
0.000000
0.000000
0.000000
0.000000
0.000000
0.000000
0.000000
0.000000
0.000000
0.000000
0.000000
0.000000
0.000000
0.000025
-0.000220
-0.000464
-0.000707
-0.000949
-0.001190
-0.001428
-0.001663
-0.001894
-0.002120
-0.002341
-0.002554
-0.002759
-0.002954
-0.003139
-0.003312
-0.003472
-0.003619
-0.003752
-0.003872
-0.003977
-0.004070
-0.004150
-0.004218
-0.004275
-0.004322
-0.004361
-0.004392
-0.004415
-0.004433
-0.004446
-0.004454
-0.004458
-0.004458
-0.004455
-0.004455
0.000043
-0.000376
-0.000795
-0.001211
-0.001623
-0.002031
-0.002433
-0.002828
-0.003214
-0.003589
-0.003951
-0.004299
-0.004630
-0.004943
-0.005236
-0.005508
-0.005758
-0.005984
-0.006188
-0.006369
-0.006527
-0.006665
-0.006782
-0.006881
-0.006964
-0.007031
-0.007085
-0.007127
-0.007160
-0.007184
-0.007200
-0.007210
-0.007215
-0.007215
-0.007211
-0.007211
0.000055
-0.000477
-0.001008
-0.001534
-0.002055
-0.002570
-0.003075
-0.003569
-0.004049
-0.004514
-0.004961
-0.005387
-0.005791
-0.006170
-0.006523
-0.006847
-0.007143
-0.007409
-0.007646
-0.007855
-0.008036
-0.008192
-0.008324
-0.008433
-0.008524
-0.008596
-0.008654
-0.008698
-0.008732
-0.008755
-0.008771
-0.008781
-0.008785
-0.008784
-0.008780
-0.008780
0.000061
-0.000539
-0.001136
-0.001730
-0.002316
-0.002894
-0.003460
-0.004013
-0.004549
-0.005066
-0.005562
-0.006033
-0.006476
-0.006891
-0.007274
-0.007624
-0.007941
-0.008225
-0.008475
-0.008693
-0.008881
-0.009040
-0.009173
-0.009283
-0.009372
-0.009442
-0.009497
-0.009538
-0.009568
-0.009589
-0.009603
-0.009610
-0.009613
-0.009612
-0.009608
-0.009608
0.000064
-0.000577
-0.001216
-0.001850
-0.002476
-0.003092
-0.003696
-0.004285
-0.004855
-0.005404
-0.005928
-0.006425
-0.006891
-0.007325
-0.007723
-0.008086
-0.008411
-0.008699
-0.008951
-0.009168
-0.009353
-0.009507
-0.009634
-0.009737
-0.009819
-0.009883
-0.009931
-0.009966
-0.009991
-0.010007
-0.010017
-0.010022
-0.010022
-0.010020
-0.010016
-0.010016
0.000066
-0.000605
-0.001272
-0.001934
-0.002588
-0.003232
-0.003863
-0.004477
-0.005071
-0.005643
-0.006187
-0.006702
-0.007183
-0.007628
-0.008034
-0.008400
-0.008726
-0.009012
-0.009259
-0.009468
-0.009644
-0.009788
-0.009904
-0.009995
-0.010066
-0.010119
-0.010158
-0.010184
-0.010202
-0.010212
-0.010217
-0.010218
-0.010217
-0.010213
-0.010208
-0.010208
0.000067
-0.000629
-0.001321
-0.002008
-0.002688
-0.003356
-0.004010
-0.004648
-0.005264
-0.005856
-0.006418
-0.006948
-0.007441
-0.007893
-0.008304
-0.008670
-0.008992
-0.009270
-0.009506
-0.009703
-0.009864
-0.009993
-0.010093
-0.010169
-0.010225
-0.010265
-0.010291
-0.010307
-0.010315
-0.010318
-0.010317
-0.010314
-0.010309
-0.010304
-0.010299
-0.010299
0.000069
-0.000654
-0.001373
-0.002087
-0.002793
-0.003488
-0.004168
-0.004831
-0.005471
-0.006084
-0.006666
-0.007210
-0.007714
-0.008174
-0.008586
-0.008949
-0.009262
-0.009529
-0.009749
-0.009928
-0.010070
-0.010178
-0.010259
-0.010315
-0.010353
-0.010376
-0.010388
-0.010391
-0.010388
-0.010382
-0.010374
-0.010365
-0.010358
-0.010350
-0.010344
-0.010344
0.000072
-0.000683
-0.001434
-0.002179
-0.002916
-0.003641
-0.004352
-0.005044
-0.005712
-0.006351
-0.006954
-0.007516
-0.008032
-0.008497
-0.008908
-0.009264
-0.009566
-0.009815
-0.010015
-0.010170
-0.010286
-0.010369
-0.010425
-0.010458
-0.010474
-0.010477
-0.010471
-0.010459
-0.010444
-0.010428
-0.010412
-0.010397
-0.010386
-0.010376
-0.010369
-0.010369
0.000076
-0.000717
-0.001506
-0.002289
-0.003063
-0.003826
-0.004574
-0.005302
-0.006003
-0.006672
-0.007300
-0.007882
-0.008410
-0.008879
-0.009287
-0.009632
-0.009915
-0.010140
-0.010313
-0.010438
-0.010523
-0.010575
-0.010600
-0.010606
-0.010596
-0.010576
-0.010551
-0.010522
-0.010492
-0.010464
-0.010440
-0.010419
-0.010403
-0.010391
-0.010383
-0.010383
0.000082
-0.000758
-0.001592
-0.002420
-0.003240
-0.004049
-0.004842
-0.005613
-0.006355
-0.007059
-0.007718
-0.008320
-0.008860
-0.009332
-0.009731
-0.010059
-0.010317
-0.010511
-0.010647
-0.010734
-0.010781
-0.010796
-0.010786
-0.010759
-0.010720
-0.010675
-0.010627
-0.010579
-0.010534
-0.010494
-0.010459
-0.010431
-0.010410
-0.010396
-0.010387
-0.010387
0.000089
-0.000806
-0.001696
-0.002580
-0.003455
-0.004319
-0.005167
-0.005991
-0.006781
-0.007528
-0.008220
-0.008846
-0.009396
-0.009865
-0.010250
-0.010552
-0.010775
-0.010927
-0.011018
-0.011059
-0.011059
-0.011030
-0.010979
-0.010916
-0.010844
-0.010771
-0.010699
-0.010631
-0.010569
-0.010515
-0.010470
-0.010435
-0.010409
-0.010391
-0.010381
-0.010381
0.000101
-0.000864
-0.001822
-0.002773
-0.003716
-0.004648
-0.005562
-0.006451
-0.007300
-0.008096
-0.008825
-0.009474
-0.010031
-0.010490
-0.010850
-0.011114
-0.011289
-0.011388
-0.011422
-0.011406
-0.011352
-0.011272
-0.011176
-0.011071
-0.010964
-0.010860
-0.010762
-0.010673
-0.010593
-0.010525
-0.010469
-0.010426
-0.010395
-0.010374
-0.010363
-0.010363
0.000118
-0.000932
-0.001974
-0.003009
-0.004036
-0.005052
-0.006049
-0.007015
-0.007933
-0.008786
-0.009554
-0.010222
-0.010778
-0.011216
-0.011537
-0.011747
-0.011859
-0.011890
-0.011855
-0.011771
-0.011654
-0.011517
-0.011369
-0.011220
-0.011076
-0.010939
-0.010814
-0.010702
-0.010604
-0.010522
-0.010455
-0.010403
-0.010366
-0.010343
-0.010330
-0.010330
0.000147
-0.001012
-0.002161
-0.003301
-0.004434
-0.005555
-0.006654
-0.007714
-0.008712
-0.009626
-0.010432
-0.011112
-0.011652
-0.012051
-0.012312
-0.012449
-0.012479
-0.012425
-0.012306
-0.012145
-0.011956
-0.011756
-0.011554
-0.011358
-0.011173
-0.011003
-0.010850
-0.010715
-0.010599
-0.010502
-0.010424
-0.010364
-0.010321
-0.010294
-0.010280
-0.010280
0.000195
-0.001105
-0.002392
-0.003670
-0.004939
-0.006193
-0.007417
-0.008588
-0.009676
-0.010651
-0.011486
-0.012160
-0.012663
-0.012997
-0.013173
-0.013212
-0.013140
-0.012982
-0.012767
-0.012517
-0.012250
-0.011981
-0.011721
-0.011476
-0.011251
-0.011047
-0.010867
-0.010709
-0.010575
-0.010464
-0.010374
-0.010305
-0.010257
-0.010226
-0.010211
-0.010211
0.000276