<VTKFile type="StructuredGrid" version="0.1" byte_order="LittleEndian">
<StructuredGrid WholeExtent="1 71 1 81 0 0">
<Piece Extent="1 36 41 61 0 0">
<PointData></PointData>
<CellData></CellData>
<Points>
<DataArray NumberOfComponents="3" format="ascii" type ="Float32" Name="mesh">
0.000000 1.750000 0.0
0.042857 1.750000 0.0
0.085714 1.750000 0.0
0.128571 1.750000 0.0
0.171429 1.750000 0.0
0.214286 1.750000 0.0
0.257143 1.750000 0.0
0.300000 1.750000 0.0
0.342857 1.750000 0.0
0.385714 1.750000 0.0
0.428571 1.750000 0.0
0.471429 1.750000 0.0
0.514286 1.750000 0.0
0.557143 1.750000 0.0
0.600000 1.750000 0.0
0.642857 1.750000 0.0
0.685714 1.750000 0.0
0.728571 1.750000 0.0
0.771429 1.750000 0.0
0.814286 1.750000 0.0
0.857143 1.750000 0.0
0.900000 1.750000 0.0
0.942857 1.750000 0.0
0.985714 1.750000 0.0
1.028571 1.750000 0.0
1.071429 1.750000 0.0
1.114286 1.750000 0.0
1.157143 1.750000 0.0
1.200000 1.750000 0.0
1.242857 1.750000 0.0
1.285714 1.750000 0.0
1.328571 1.750000 0.0
1.371429 1.750000 0.0
1.414286 1.750000 0.0
1.457143 1.750000 0.0
1.500000 1.750000 0.0
0.000000 1.793750 0.0
0.042857 1.793750 0.0
0.085714 1.793750 0.0
0.128571 1.793750 0.0
0.171429 1.793750 0.0
0.214286 1.793750 0.0
0.257143 1.793750 0.0
0.300000 1.793750 0.0
0.342857 1.793750 0.0
0.385714 1.793750 0.0
0.428571 1.793750 0.0
0.471429 1.793750 0.0
0.514286 1.793750 0.0
0.557143 1.793750 0.0
0.600000 1.793750 0.0
0.642857 1.793750 0.0
0.685714 1.793750 0.0
0.728571 1.793750 0.0
0.771429 1.793750 0.0
0.814286 1.793750 0.0
0.857143 1.793750 0.0
0.900000 1.793750 0.0
0.942857 1.793750 0.0
0.985714 1.793750 0.0
1.028571 1.793750 0.0
1.071429 1.793750 0.0
1.114286 1.793750 0.0
1.157143 1.793750 0.0
1.200000 1.793750 0.0
1.242857 1.793750 0.0
1.285714 1.793750 0.0
1.328571 1.793750 0.0
1.371429 1.793750 0.0
1.414286 1.793750 0.0
1.457143 1.793750 0.0
1.500000 1.793750 0.0
0.000000 1.837500 0.0
0.042857 1.837500 0.0
0.085714 1.837500 0.0
0.128571 1.837500 0.0
0.171429 1.837500 0.0
0.214286 1.837500 0.0
0.257143 1.837500 0.0
0.300000 1.837500 0.0
0.342857 1.837500 0.0
0.385714 1.837500 0.0
0.428571 1.837500 0.0
0.471429 1.837500 0.0
0.514286 1.837500 0.0
0.557143 1.837500 0.0
0.600000 1.837500 0.0
0.642857 1.837500 0.0
0.685714 1.837500 0.0
0.728571 1.837500 0.0
0.771429 1.837500 0.0
0.814286 1.837500 0.0
0.857143 1.837500 0.0
0.900000 1.837500 0.0
0.942857 1.837500 0.0
0.985714 1.837500 0.0
1.028571 1.837500 0.0
1.071429 1.837500 0.0
1.114286 1.837500 0.0
1.157143 1.837500 0.0
1.200000 1.837500 0.0
1.242857 1.837500 0.0
1.285714 1.837500 0.0
1.328571 1.837500 0.0
1.371429 1.837500 0.0
1.414286 1.837500 0.0
1.457143 1.837500 0.0
1.500000 1.837500 0.0
0.000000 1.881250 0.0
0.042857 1.881250 0.0
0.085714 1.881250 0.0
0.128571 1.881250 0.0
0.171429 1.881250 0.0
0.214286 1.881250 0.0
0.257143 1.881250 0.0
0.300000 1.881250 0.0
0.342857 1.881250 0.0
0.385714 1.881250 0.0
0.428571 1.881250 0.0
0.471429 1.881250 0.0
0.514286 1.881250 0.0
0.557143 1.881250 0.0
0.600000 1.881250 0.0
0.642857 1.881250 0.0
0.685714 1.881250 0.0
0.728571 1.881250 0.0
0.771429 1.881250 0.0
0.814286 1.881250 0.0
0.857143 1.881250 0.0
0.900000 1.881250 0.0
0.942857 1.881250 0.0
0.985714 1.881250 0.0
1.028571 1.881250 0.0
1.071429 1.881250 0.0
1.114286 1.881250 0.0
1.157143 1.881250 0.0
1.200000 1.881250 0.0
1.242857 1.881250 0.0
1.285714 1.881250 0.0
1.328571 1.881250 0.0
1.371429 1.881250 0.0
1.414286 1.881250 0.0
1.457143 1.881250 0.0
1.500000 1.881250 0.0
0.000000 1.925000 0.0
0.042857 1.925000 0.0
0.085714 1.925000 0.0
0.128571 1.925000 0.0
0.171429 1.925000 0.0
0.214286 1.925000 0.0
0.257143 1.925000 0.0
0.300000 1.925000 0.0
0.342857 1.925000 0.0
0.385714 1.925000 0.0
0.428571 1.925000 0.0
0.471429 1.925000 0.0
0.514286 1.925000 0.0
0.557143 1.925000 0.0
0.600000 1.925000 0.0
0.642857 1.925000 0.0
0.685714 1.925000 0.0
0.728571 1.925000 0.0
0.771429 1.925000 0.0
0.814286 1.925000 0.0
0.857143 1.925000 0.0
0.900000 1.925000 0.0
0.942857 1.925000 0.0
0.985714 1.925000 0.0
1.028571 1.925000 0.0
1.071429 1.925000 0.0
1.114286 1.925000 0.0
1.157143 1.925000 0.0
1.200000 1.925000 0.0
1.242857 1.925000 0.0
1.285714 1.925000 0.0
1.328571 1.925000 0.0
1.371429 1.925000 0.0
1.414286 1.925000 0.0
1.457143 1.925000 0.0
1.500000 1.925000 0.0
0.000000 1.968750 0.0
0.042857 1.968750 0.0
0.085714 1.968750 0.0
0.128571 1.968750 0.0
0.171429 1.968750 0.0
0.214286 1.968750 0.0
0.257143 1.968750 0.0
0.300000 1.968750 0.0
0.342857 1.968750 0.0
0.385714 1.968750 0.0
0.428571 1.968750 0.0
0.471429 1.968750 0.0
0.514286 1.968750 0.0
0.557143 1.968750 0.0
0.600000 1.968750 0.0
0.642857 1.968750 0.0
0.685714 1.968750 0.0
0.728571 1.968750 0.0
0.771429 1.968750 0.0
0.814286 1.968750 0.0
0.857143 1.968750 0.0
0.900000 1.968750 0.0
0.942857 1.968750 0.0
0.985714 1.968750 0.0
1.028571 1.968750 0.0
1.071429 1.968750 0.0
1.114286 1.968750 0.0
1.157143 1.968750 0.0
1.200000 1.968750 0.0
1.242857 1.968750 0.0
1.285714 1.968750 0.0
1.328571 1.968750 0.0
1.371429 1.968750 0.0
1.414286 1.968750 0.0
1.457143 1.968750 0.0
1.500000 1.968750 0.0
0.000000 2.012500 0.0
0.042857 2.012500 0.0
0.085714 2.012500 0.0
0.128571 2.012500 0.0
0.171429 2.012500 0.0
0.214286 2.012500 0.0
0.257143 2.012500 0.0
0.300000 2.012500 0.0
0.342857 2.012500 0.0
0.385714 2.012500 0.0
0.428571 2.012500 0.0
0.471429 2.012500 0.0
0.514286 2.012500 0.0
0.557143 2.012500 0.0
0.600000 2.012500 0.0
0.642857 2.012500 0.0
0.685714 2.012500 0.0
0.728571 2.012500 0.0
0.771429 2.012500 0.0
0.814286 2.012500 0.0
0.857143 2.012500 0.0
0.900000 2.012500 0.0
0.942857 2.012500 0.0
0.985714 2.012500 0.0
1.028571 2.012500 0.0
1.071429 2.012500 0.0
1.114286 2.012500 0.0
1.157143 2.012500 0.0
1.200000 2.012500 0.0
1.242857 2.012500 0.0
1.285714 2.012500 0.0
1.328571 2.012500 0.0
1.371429 2.012500 0.0
1.414286 2.012500 0.0
1.457143 2.012500 0.0
1.500000 2.012500 0.0
0.000000 2.056250 0.0
0.042857 2.056250 0.0
0.085714 2.056250 0.0
0.128571 2.056250 0.0
0.171429 2.056250 0.0
0.214286 2.056250 0.0
0.257143 2.056250 0.0
0.300000 2.056250 0.0
0.342857 2.056250 0.0
0.385714 2.056250 0.0
0.428571 2.056250 0.0
0.471429 2.056250 0.0
0.514286 2.056250 0.0
0.557143 2.056250 0.0
0.600000 2.056250 0.0
0.642857 2.056250 0.0
0.685714 2.056250 0.0
0.728571 2.056250 0.0
0.771429 2.056250 0.0
0.814286 2.056250 0.0
0.857143 2.056250 0.0
0.900000 2.056250 0.0
0.942857 2.056250 0.0
0.985714 2.056250 0.0
1.028571 2.056250 0.0
1.071429 2.056250 0.0
1.114286 2.056250 0.0
1.157143 2.056250 0.0
1.200000 2.056250 0.0
1.242857 2.056250 0.0
1.285714 2.056250 0.0
1.328571 2.056250 0.0
1.371429 2.056250 0.0
1.414286 2.056250 0.0
1.457143 2.056250 0.0
1.500000 2.056250 0.0
0.000000 2.100000 0.0
0.042857 2.100000 0.0
0.085714 2.100000 0.0
0.128571 2.100000 0.0
0.171429 2.100000 0.0
0.214286 2.100000 0.0
0.257143 2.100000 0.0
0.300000 2.100000 0.0
0.342857 2.100000 0.0
0.385714 2.100000 0.0
0.428571 2.100000 0.0
0.471429 2.100000 0.0
0.514286 2.100000 0.0
0.557143 2.100000 0.0
0.600000 2.100000 0.0
0.642857 2.100000 0.0
0.685714 2.100000 0.0
0.728571 2.100000 0.0
0.771429 2.100000 0.0
0.814286 2.100000 0.0
0.857143 2.100000 0.0
0.900000 2.100000 0.0
0.942857 2.100000 0.0
0.985714 2.100000 0.0
1.028571 2.100000 0.0
1.071429 2.100000 0.0
1.114286 2.100000 0.0
1.157143 2.100000 0.0
1.200000 2.100000 0.0
1.242857 2.100000 0.0
1.285714 2.100000 0.0
1.328571 2.100000 0.0
1.371429 2.100000 0.0
1.414286 2.100000 0.0
1.457143 2.100000 0.0
1.500000 2.100000 0.0
0.000000 2.143750 0.0
0.042857 2.143750 0.0
0.085714 2.143750 0.0
0.128571 2.143750 0.0
0.171429 2.143750 0.0
0.214286 2.143750 0.0
0.257143 2.143750 0.0
0.300000 2.143750 0.0
0.342857 2.143750 0.0
0.385714 2.143750 0.0
0.428571 2.143750 0.0
0.471429 2.143750 0.0
0.514286 2.143750 0.0
0.557143 2.143750 0.0
0.600000 2.143750 0.0
0.642857 2.143750 0.0
0.685714 2.143750 0.0
0.728571 2.143750 0.0
0.771429 2.143750 0.0
0.814286 2.143750 0.0
0.857143 2.143750 0.0
0.900000 2.143750 0.0
0.942857 2.143750 0.0
0.985714 2.143750 0.0
1.028571 2.143750 0.0
1.071429 2.143750 0.0
1.114286 2.143750 0.0
1.157143 2.143750 0.0
1.200000 2.143750 0.0
1.242857 2.143750 0.0
1.285714 2.143750 0.0
1.328571 2.143750 0.0
1.371429 2.143750 0.0
1.414286 2.143750 0.0
1.457143 2.143750 0.0
1.500000 2.143750 0.0
0.000000 2.187500 0.0
0.042857 2.187500 0.0
0.085714 2.187500 0.0
0.128571 2.187500 0.0
0.171429 2.187500 0.0
0.214286 2.187500 0.0
0.257143 2.187500 0.0
0.300000 2.187500 0.0
0.342857 2.187500 0.0
0.385714 2.187500 0.0
0.428571 2.187500 0.0
0.471429 2.187500 0.0
0.514286 2.187500 0.0
0.557143 2.187500 0.0
0.600000 2.187500 0.0
0.642857 2.187500 0.0
0.685714 2.187500 0.0
0.728571 2.187500 0.0
0.771429 2.187500 0.0
0.814286 2.187500 0.0
0.857143 2.187500 0.0
0.900000 2.187500 0.0
0.942857 2.187500 0.0
0.985714 2.187500 0.0
1.028571 2.187500 0.0
1.071429 2.187500 0.0
1.114286 2.187500 0.0
1.157143 2.187500 0.0
1.200000 2.187500 0.0
1.242857 2.187500 0.0
1.285714 2.187500 0.0
1.328571 2.187500 0.0
1.371429 2.187500 0.0
1.414286 2.187500 0.0
1.457143 2.187500 0.0
1.500000 2.187500 0.0
0.000000 2.231250 0.0
0.042857 2.231250 0.0
0.085714 2.231250 0.0
0.128571 2.231250 0.0
0.171429 2.231250 0.0
0.214286 2.231250 0.0
0.257143 2.231250 0.0
0.300000 2.231250 0.0
0.342857 2.231250 0.0
0.385714 2.231250 0.0
0.428571 2.231250 0.0
0.471429 2.231250 0.0
0.514286 2.231250 0.0
0.557143 2.231250 0.0
0.600000 2.231250 0.0
0.642857 2.231250 0.0
0.685714 2.231250 0.0
0.728571 2.231250 0.0
0.771429 2.231250 0.0
0.814286 2.231250 0.0
0.857143 2.231250 0.0
0.900000 2.231250 0.0
0.942857 2.231250 0.0
0.985714 2.231250 0.0
1.028571 2.231250 0.0
1.071429 2.231250 0.0
1.114286 2.231250 0.0
1.157143 2.231250 0.0
1.200000 2.231250 0.0
1.242857 2.231250 0.0
1.285714 2.231250 0.0
1.328571 2.231250 0.0
1.371429 2.231250 0.0
1.414286 2.231250 0.0
1.457143 2.231250 0.0
1.500000 2.231250 0.0
0.000000 2.275000 0.0
0.042857 2.275000 0.0
0.085714 2.275000 0.0
0.128571 2.275000 0.0
0.171429 2.275000 0.0
0.214286 2.275000 0.0
0.257143 2.275000 0.0
0.300000 2.275000 0.0
0.342857 2.275000 0.0
0.385714 2.275000 0.0
0.428571 2.275000 0.0
0.471429 2.275000 0.0
0.514286 2.275000 0.0
0.557143 2.275000 0.0
0.600000 2.275000 0.0
0.642857 2.275000 0.0
0.685714 2.275000 0.0
0.728571 2.275000 0.0
0.771429 2.275000 0.0
0.814286 2.275000 0.0
0.857143 2.275000 0.0
0.900000 2.275000 0.0
0.942857 2.275000 0.0
0.985714 2.275000 0.0
1.028571 2.275000 0.0
1.071429 2.275000 0.0
1.114286 2.275000 0.0
1.157143 2.275000 0.0
1.200000 2.275000 0.0
1.242857 2.275000 0.0
1.285714 2.275000 0.0
1.328571 2.275000 0.0
1.371429 2.275000 0.0
1.414286 2.275000 0.0
1.457143 2.275000 0.0
1.500000 2.275000 0.0
0.000000 2.318750 0.0
0.042857 2.318750 0.0
0.085714 2.318750 0.0
0.128571 2.318750 0.0
0.171429 2.318750 0.0
0.214286 2.318750 0.0
0.257143 2.318750 0.0
0.300000 2.318750 0.0
0.342857 2.318750 0.0
0.385714 2.318750 0.0
0.428571 2.318750 0.0
0.471429 2.318750 0.0
0.514286 2.318750 0.0
0.557143 2.318750 0.0
0.600000 2.318750 0.0
0.642857 2.318750 0.0
0.685714 2.318750 0.0
0.728571 2.318750 0.0
0.771429 2.318750 0.0
0.814286 2.318750 0.0
0.857143 2.318750 0.0
0.900000 2.318750 0.0
0.942857 2.318750 0.0
0.985714 2.318750 0.0
1.028571 2.318750 0.0
1.071429 2.318750 0.0
1.114286 2.318750 0.0
1.157143 2.318750 0.0
1.200000 2.318750 0.0
1.242857 2.318750 0.0
1.285714 2.318750 0.0
1.328571 2.318750 0.0
1.371429 2.318750 0.0
1.414286 2.318750 0.0
1.457143 2.318750 0.0
1.500000 2.318750 0.0
0.000000 2.362500 0.0
0.042857 2.362500 0.0
0.085714 2.362500 0.0
0.128571 2.362500 0.0
0.171429 2.362500 0.0
0.214286 2.362500 0.0
0.257143 2.362500 0.0
0.300000 2.362500 0.0
0.342857 2.362500 0.0
0.385714 2.362500 0.0
0.428571 2.362500 0.0
0.471429 2.362500 0.0
0.514286 2.362500 0.0
0.557143 2.362500 0.0
0.600000 2.362500 0.0
0.642857 2.362500 0.0
0.685714 2.362500 0.0
0.728571 2.362500 0.0
0.771429 2.362500 0.0
0.814286 2.362500 0.0
0.857143 2.362500 0.0
0.900000 2.362500 0.0
0.942857 2.362500 0.0
0.985714 2.362500 0.0
1.028571 2.362500 0.0
1.071429 2.362500 0.0
1.114286 2.362500 0.0
1.157143 2.362500 0.0
1.200000 2.362500 0.0
1.242857 2.362500 0.0
1.285714 2.362500 0.0
1.328571 2.362500 0.0
1.371429 2.362500 0.0
1.414286 2.362500 0.0
1.457143 2.362500 0.0
1.500000 2.362500 0.0
0.000000 2.406250 0.0
0.042857 2.406250 0.0
0.085714 2.406250 0.0
0.128571 2.406250 0.0
0.171429 2.406250 0.0
0.214286 2.406250 0.0
0.257143 2.406250 0.0
0.300000 2.406250 0.0
0.342857 2.406250 0.0
0.385714 2.406250 0.0
0.428571 2.406250 0.0
0.471429 2.406250 0.0
0.514286 2.406250 0.0
0.557143 2.406250 0.0
0.600000 2.406250 0.0
0.642857 2.406250 0.0
0.685714 2.406250 0.0
0.728571 2.406250 0.0
0.771429 2.406250 0.0
0.814286 2.406250 0.0
0.857143 2.406250 0.0
0.900000 2.406250 0.0
0.942857 2.406250 0.0
0.985714 2.406250 0.0
1.028571 2.406250 0.0
1.071429 2.406250 0.0
1.114286 2.406250 0.0
1.157143 2.406250 0.0
1.200000 2.406250 0.0
1.242857 2.406250 0.0
1.285714 2.406250 0.0
1.328571 2.406250 0.0
1.371429 2.406250 0.0
1.414286 2.406250 0.0
1.457143 2.406250 0.0
1.500000 2.406250 0.0
0.000000 2.450000 0.0
0.042857 2.450000 0.0
0.085714 2.450000 0.0
0.128571 2.450000 0.0
0.171429 2.450000 0.0
0.214286 2.450000 0.0
0.257143 2.450000 0.0
0.300000 2.450000 0.0
0.342857 2.450000 0.0
0.385714 2.450000 0.0
0.428571 2.450000 0.0
0.471429 2.450000 0.0
0.514286 2.450000 0.0
0.557143 2.450000 0.0
0.600000 2.450000 0.0
0.642857 2.450000 0.0
0.685714 2.450000 0.0
0.728571 2.450000 0.0
0.771429 2.450000 0.0
0.814286 2.450000 0.0
0.857143 2.450000 0.0
0.900000 2.450000 0.0
0.942857 2.450000 0.0
0.985714 2.450000 0.0
1.028571 2.450000 0.0
1.071429 2.450000 0.0
1.114286 2.450000 0.0
1.157143 2.450000 0.0
1.200000 2.450000 0.0
1.242857 2.450000 0.0
1.285714 2.450000 0.0
1.328571 2.450000 0.0
1.371429 2.450000 0.0
1.414286 2.450000 0.0
1.457143 2.450000 0.0
1.500000 2.450000 0.0
0.000000 2.493750 0.0
0.042857 2.493750 0.0
0.085714 2.493750 0.0
0.128571 2.493750 0.0
0.171429 2.493750 0.0
0.214286 2.493750 0.0
0.257143 2.493750 0.0
0.300000 2.493750 0.0
0.342857 2.493750 0.0
0.385714 2.493750 0.0
0.428571 2.493750 0.0
0.471429 2.493750 0.0
0.514286 2.493750 0.0
0.557143 2.493750 0.0
0.600000 2.493750 0.0
0.642857 2.493750 0.0
0.685714 2.493750 0.0
0.728571 2.493750 0.0
0.771429 2.493750 0.0
0.814286 2.493750 0.0
0.857143 2.493750 0.0
0.900000 2.493750 0.0
0.942857 2.493750 0.0
0.985714 2.493750 0.0
1.028571 2.493750 0.0
1.071429 2.493750 0.0
1.114286 2.493750 0.0
1.157143 2.493750 0.0
1.200000 2.493750 0.0
1.242857 2.493750 0.0
1.285714 2.493750 0.0
1.328571 2.493750 0.0
1.371429 2.493750 0.0
1.414286 2.493750 0.0
1.457143 2.493750 0.0
1.500000 2.493750 0.0
0.000000 2.537500 0.0
0.042857 2.537500 0.0
0.085714 2.537500 0.0
0.128571 2.537500 0.0
0.171429 2.537500 0.0
0.214286 2.537500 0.0
0.257143 2.537500 0.0
0.300000 2.537500 0.0
0.342857 2.537500 0.0
0.385714 2.537500 0.0
0.428571 2.537500 0.0
0.471429 2.537500 0.0
0.514286 2.537500 0.0
0.557143 2.537500 0.0
0.600000 2.537500 0.0
0.642857 2.537500 0.0
0.685714 2.537500 0.0
0.728571 2.537500 0.0
0.771429 2.537500 0.0
0.814286 2.537500 0.0
0.857143 2.537500 0.0
0.900000 2.537500 0.0
0.942857 2.537500 0.0
0.985714 2.537500 0.0
1.028571 2.537500 0.0
1.071429 2.537500 0.0
1.114286 2.537500 0.0
1.157143 2.537500 0.0
1.200000 2.537500 0.0
1.242857 2.537500 0.0
1.285714 2.537500 0.0
1.328571 2.537500 0.0
1.371429 2.537500 0.0
1.414286 2.537500 0.0
1.457143 2.537500 0.0
1.500000 2.537500 0.0
0.000000 2.581250 0.0
0.042857 2.581250 0.0
0.085714 2.581250 0.0
0.128571 2.581250 0.0
0.171429 2.581250 0.0
0.214286 2.581250 0.0
0.257143 2.581250 0.0
0.300000 2.581250 0.0
0.342857 2.581250 0.0
0.385714 2.581250 0.0
0.428571 2.581250 0.0
0.471429 2.581250 0.0
0.514286 2.581250 0.0
0.557143 2.581250 0.0
0.600000 2.581250 0.0
0.642857 2.581250 0.0
0.685714 2.581250 0.0
0.728571 2.581250 0.0
0.771429 2.581250 0.0
0.814286 2.581250 0.0
0.857143 2.581250 0.0
0.900000 2.581250 0.0
0.942857 2.581250 0.0
0.985714 2.581250 0.0
1.028571 2.581250 0.0
1.071429 2.581250 0.0
1.114286 2.581250 0.0
1.157143 2.581250 0.0
1.200000 2.581250 0.0
1.242857 2.581250 0.0
1.285714 2.581250 0.0
1.328571 2.581250 0.0
1.371429 2.581250 0.0
1.414286 2.581250 0.0
1.457143 2.581250 0.0
1.500000 2.581250 0.0
0.000000 2.625000 0.0
0.042857 2.625000 0.0
0.085714 2.625000 0.0
0.128571 2.625000 0.0
0.171429 2.625000 0.0
0.214286 2.625000 0.0
0.257143 2.625000 0.0
0.300000 2.625000 0.0
0.342857 2.625000 0.0
0.385714 2.625000 0.0
0.428571 2.625000 0.0
0.471429 2.625000 0.0
0.514286 2.625000 0.0
0.557143 2.625000 0.0
0.600000 2.625000 0.0
0.642857 2.625000 0.0
0.685714 2.625000 0.0
0.728571 2.625000 0.0
0.771429 2.625000 0.0
0.814286 2.625000 0.0
0.857143 2.625000 0.0
0.900000 2.625000 0.0
0.942857 2.625000 0.0
0.985714 2.625000 0.0
1.028571 2.625000 0.0
1.071429 2.625000 0.0
1.114286 2.625000 0.0
1.157143 2.625000 0.0
1.200000 2.625000 0.0
1.242857 2.625000 0.0
1.285714 2.625000 0.0
1.328571 2.625000 0.0
1.371429 2.625000 0.0
1.414286 2.625000 0.0
1.457143 2.625000 0.0
1.500000 2.625000 0.0
</DataArray></Points>
<PointData>
<DataArray NumberOfComponents="1" format="ascii" type ="Float32" Name="phi">
0.737274
0.748400
0.748824
0.749326
0.747321
0.733209
0.701387
0.660095
0.617443
0.574773
0.532129
0.489517
0.446938
0.404396
0.361902
0.319477
0.277131
0.234870
0.192706
0.150660
0.108761
0.067023
0.026513
-0.006695
-0.039934
-0.079182
-0.117880
-0.155426
-0.190959
-0.223530
-0.252480
-0.277386
-0.295438
-0.300771
-0.297242
-0.292644
0.704462
0.704652
0.705080
0.705628
0.706289
0.703984
0.688841
0.656067
0.614389
0.571586
0.528772
0.485970
0.443176
0.400392
0.357618
0.314856
0.272110
0.229384
0.186679
0.143998
0.101344
0.058704
0.017660
-0.018980
-0.055956
-0.095927
-0.135608
-0.174872
-0.213257
-0.249801
-0.283209
-0.312327
-0.334820
-0.343471
-0.340777
-0.336136
0.660712
0.660905
0.661335
0.661888
0.662611
0.663481
0.661115
0.645520
0.612321
0.570460
0.527598
0.484740
0.441885
0.399034
0.356188
0.313346
0.270509
0.227678
0.184855
0.142040
0.099232
0.056423
0.014361
-0.026520
-0.067492
-0.108840
-0.149887
-0.190603
-0.230867
-0.270303
-0.307973
-0.342328
-0.370810
-0.384893
-0.384349
-0.379627
0.616963
0.617157
0.617591
0.618148
0.618877
0.619819
0.620964
0.618824
0.603439
0.570430
0.528651
0.485854
0.443065
0.400286
0.357519
0.314769
0.272039
0.229331
0.186646
0.143991
0.101372
0.058796
0.016441
-0.026747
-0.069913
-0.111904
-0.153602
-0.194941
-0.235861
-0.276235
-0.315668
-0.353154
-0.386770
-0.411211
-0.422761
-0.423012
0.573213
0.573409
0.573846
0.574407
0.575143
0.576093
0.577310
0.578828
0.577311
0.562954
0.530845
0.489444
0.446857
0.404292
0.361754
0.319256
0.276820
0.234454
0.192152
0.149926
0.107806
0.065809
0.023880
-0.019895
-0.063019
-0.103821
-0.144658
-0.185122
-0.225044
-0.264232
-0.302291
-0.338421
-0.371541
-0.400586
-0.422422
-0.431622
0.529463
0.529661
0.530101
0.530667
0.531408
0.532366
0.533596
0.535174
0.537184
0.536742
0.524121
0.493580
0.452964
0.410731
0.368553
0.326443
0.284433
0.242553
0.200813
0.159219
0.117800
0.076602
0.035661
-0.007147
-0.049613
-0.089732
-0.129493
-0.168505
-0.206698
-0.243795
-0.279048
-0.311521
-0.340542
-0.365614
-0.385624
-0.397487
0.485714
0.485913
0.486356
0.486926
0.487673
0.488639
0.489880
0.491476
0.493527
0.496233
0.496979
0.486556
0.458613
0.419414
0.377724
0.336147
0.294691
0.253408
0.212346
0.171520
0.130948
0.090684
0.050835
0.009669
-0.033101
-0.073402
-0.111060
-0.148261
-0.184566
-0.219207
-0.251212
-0.280138
-0.305926
-0.328133
-0.345331
-0.354951
0.441964
0.442165
0.442611
0.443184
0.443937
0.444911
0.446163
0.447777
0.449856
0.452589
0.455817
0.457464
0.449802
0.426258
0.389561
0.348250
0.307378
0.266787
0.226460
0.186449
0.146796
0.107538
0.068776
0.029849
-0.012465
-0.053128
-0.089273
-0.125030
-0.159255
-0.190878
-0.219615
-0.245767
-0.269248
-0.289207
-0.304028
-0.311898
0.398214
0.398417
0.398866
0.399442
0.400201
0.401182
0.402446
0.404077
0.406186
0.408959
0.412219
0.415338
0.417393
0.412811
0.394351
0.361607
0.322148
0.282321
0.242802
0.203666
0.165000
0.126875
0.089356
0.052578
0.013292
-0.027875
-0.065626
-0.099574
-0.130695
-0.159144
-0.185400
-0.209664
-0.231328
-0.249241
-0.261996
-0.268550
0.354465
0.354668
0.355120
0.355700
0.356463
0.357452
0.358727
0.360377
0.362515
0.365330
0.368620
0.371715
0.374011
0.375610
0.373942
0.362120
0.336201
0.300342
0.261528
0.223153
0.185583
0.148653
0.112413
0.076936
0.041232
0.002078
-0.037301
-0.070429
-0.098676
-0.124953
-0.149707
-0.172497
-0.192430
-0.208413
-0.219447
-0.225043
0.310715
0.310920
0.311374
0.311957
0.312725
0.313721
0.315008
0.316676
0.318844
0.321701
0.325020
0.328086
0.330326
0.331944
0.333551
0.334925
0.329558
0.311902
0.281634
0.244743
0.208249
0.172404
0.137295
0.102913
0.069364
0.035155
-0.001726
-0.036314
-0.064457
-0.089536
-0.113175
-0.134459
-0.152653
-0.166893
-0.176557
-0.181457
0.266965
0.267172
0.267628
0.268213
0.268987
0.269989
0.271287
0.272975
0.275174
0.278073
0.281417
0.284451
0.286634
0.288231
0.289841
0.292109
0.294915
0.294872
0.285428
0.263783
0.232548
0.197743
0.163681
0.130409
0.098043
0.066815
0.034889
0.001875
-0.027981
-0.053533
-0.075941
-0.095515
-0.112133
-0.124858
-0.133457
-0.137833
0.223216
0.223423
0.223881
0.224470
0.225248
0.226257
0.227566
0.229273
0.231505
0.234445
0.237813
0.240809
0.242935
0.244513
0.246127
0.248430
0.251265
0.254209
0.257519
0.255914
0.244618
0.222230
0.191437
0.159251
0.128024
0.097820
0.068955
0.040194
0.011652
-0.014467
-0.036864
-0.055802
-0.071119
-0.082442
-0.090235
-0.094190
0.179466
0.179675
0.180135
0.180726
0.181508
0.182524
0.183845
0.185571
0.187836
0.190818
0.194207
0.197161
0.199231
0.200792
0.202412
0.204751
0.207609
0.210569
0.214117
0.218547
0.223246
0.221376
0.210002
0.188370
0.159198
0.130248
0.102519
0.075868
0.050468
0.026712
0.005063
-0.013888
-0.028926
-0.039766
-0.046963
-0.050551
0.135717
0.135926
0.136388
0.136981
0.137768
0.138791
0.140122
0.141868
0.144168
0.147192
0.150598
0.153507
0.155522
0.157070
0.158695
0.161071
0.163952
0.166930
0.170553
0.175093
0.180683
0.187555
0.194143
0.192223
0.181331
0.162542
0.136826
0.111211
0.087487
0.066152
0.046494
0.029027
0.014904
0.004413
-0.002331
-0.005645
0.091967
0.092178
0.092641
0.093237
0.094028
0.095057
0.096400
0.098166
0.100502
0.103566
0.106988
0.109850
0.111811
0.113348
0.114980
0.117393
0.120293
0.123293
0.126998
0.131654
0.137400
0.144463
0.152423
0.160197
0.166891
0.166335
0.158979
0.145516
0.125264
0.104904
0.086390
0.070709
0.058241
0.048685
0.042388
0.039291
0.048214
0.048426
0.048889
0.049485
0.050278
0.051311
0.052662
0.054443
0.056811
0.059908
0.063328
0.066136
0.068048
0.069578
0.071224
0.073696
0.076632
0.079659
0.083453
0.088231
0.094142
0.101389
0.109469
0.117192
0.124676
0.132873
0.142522
0.146738
0.143150
0.137774
0.126798
0.112224
0.100580
0.091722
0.085884
0.082987
0.004679
0.004923
0.005461
0.006147
0.007033
0.008157
0.009597
0.011462
0.013912
0.017116
0.020648
0.023414
0.025193
0.026628
0.028168
0.030315
0.032970
0.036027
0.039921
0.044825
0.050917
0.058362
0.066543
0.074196
0.081651
0.090030
0.099936
0.110403
0.120829
0.131150
0.135267
0.133641
0.132294
0.131604
0.129422
0.126697
-0.038851
-0.038575
-0.037960
-0.037181
-0.036199
-0.034980
-0.033448
-0.031477
-0.028837
-0.025386
-0.021685
-0.018882
-0.017161
-0.015809
-0.014381
-0.012614
-0.010305
-0.007295
-0.003431
0.001445
0.007538
0.015014
0.023233
0.031007
0.038653
0.047273
0.057467
0.068025
0.078509
0.090164
0.102475
0.113001
0.121262
0.128352
0.131520
0.131278
-0.082599
-0.082322
-0.081705
-0.080922
-0.079935
-0.078708
-0.077160
-0.075142
-0.072332
-0.068722
-0.065014
-0.062197
-0.060438
-0.059077
-0.057643
-0.055880
-0.053588
-0.050610
-0.046784
-0.041920
-0.035811
-0.028450
-0.020519
-0.012852
-0.005186
0.003424
0.013681
0.024850
0.036176
0.048228
0.060649
0.070593
0.078218
0.085165
0.090079
0.092138
-0.115409
-0.126068
-0.125449
-0.124663
-0.123670
-0.122434
-0.120870
-0.118810
-0.115930
-0.112300
-0.108653
-0.105905
-0.104171
-0.102812
-0.101371
-0.099590
-0.097260
-0.094220
-0.090301
-0.085271
-0.078942
-0.071583
-0.063941
-0.056544
-0.048990
-0.040406
-0.030447
-0.019422
-0.007919
0.004072
0.016408
0.026938
0.035189
0.041987
0.046553
0.048442
</DataArray>
<DataArray NumberOfComponents="1" format="ascii" type ="Float32" Name="u">
0.000000
0.001528
0.001551
0.001598
0.001665
0.001749
0.001845
0.001952
0.002063
0.002175
0.002276
0.002354
0.002388
0.002349
0.002204
0.001920
0.001472
0.000860
0.000134
-0.000560
-0.000926
-0.000577
0.000385
-0.000174
-0.001360
-0.002226
-0.002983
-0.003491
-0.003702
-0.003632
-0.003312
-0.002779
-0.002071
-0.001232
-0.000311
0.000640
0.000421
0.000421
0.000428
0.000447
0.000473
0.000500
0.000521
0.000528
0.000515
0.000469
0.000377
0.000220
-0.000028
-0.000394
-0.000910
-0.001600
-0.002478
-0.003533
-0.004715
-0.005888
-0.006740
-0.006738
-0.005624
-0.005796
-0.004965
-0.004843
-0.004897
-0.004876
-0.004688
-0.004313
-0.003754
-0.003027
-0.002154
-0.001172
-0.000122
0.000947
-0.000722
-0.000722
-0.000722
-0.000726
-0.000742
-0.000777
-0.000841
-0.000942
-0.001093
-0.001307
-0.001603
-0.002001
-0.002528
-0.003209
-0.004068
-0.005121
-0.006371
-0.007803
-0.009377
-0.010992
-0.012393
-0.013015
-0.012081
-0.010097
-0.008230
-0.007235
-0.006618
-0.006096
-0.005539
-0.004882
-0.004098
-0.003183
-0.002152
-0.001037
0.000125
0.001292
-0.001862
-0.001862
-0.001870
-0.001899
-0.001958
-0.002057
-0.002208
-0.002421
-0.002709
-0.003089
-0.003580
-0.004203
-0.004982
-0.005937
-0.007084
-0.008432
-0.009978
-0.011709
-0.013598
-0.015591
-0.017514
-0.018853
-0.018404
-0.014268
-0.011448
-0.009531
-0.008223
-0.007218
-0.006308
-0.005373
-0.004360
-0.003258
-0.002078
-0.000844
0.000412
0.001656
-0.002971
-0.002971
-0.002989
-0.003043
-0.003145
-0.003307
-0.003541
-0.003859
-0.004275
-0.004804
-0.005465
-0.006277
-0.007260
-0.008427
-0.009790
-0.011352
-0.013108
-0.015051
-0.017167
-0.019433
-0.021743
-0.023664
-0.023899
-0.019596
-0.015011
-0.011871
-0.009831
-0.008335
-0.007050
-0.005816
-0.004564
-0.003276
-0.001956
-0.000620
0.000710
0.002011
-0.004026
-0.004026
-0.004054
-0.004132
-0.004274
-0.004494
-0.004802
-0.005211
-0.005733
-0.006383
-0.007177
-0.008129
-0.009254
-0.010563
-0.012061
-0.013750
-0.015630
-0.017695
-0.019943
-0.022369
-0.024929
-0.027346
-0.028511
-0.025558
-0.018753
-0.014379
-0.011573
-0.009514
-0.007801
-0.006239
-0.004740
-0.003271
-0.001823
-0.000402
0.000983
0.002321
-0.005005
-0.005005
-0.005042
-0.005141
-0.005318
-0.005586
-0.005954
-0.006434
-0.007036
-0.007772
-0.008654
-0.009693
-0.010897
-0.012275
-0.013830
-0.015566
-0.017482
-0.019582
-0.021868
-0.024347
-0.027021
-0.029793
-0.031947
-0.030916
-0.023293
-0.017396
-0.013546
-0.010799
-0.008601
-0.006689
-0.004939
-0.003296
-0.001734
-0.000244
0.001181
0.002544
-0.005890
-0.005890
-0.005935
-0.006051
-0.006255
-0.006558
-0.006970
-0.007498
-0.008151
-0.008938
-0.009865
-0.010939
-0.012166
-0.013549
-0.015094
-0.016802
-0.018679
-0.020732
-0.022967
-0.025399
-0.028050
-0.030929
-0.033749
-0.034694
-0.029139
-0.021047
-0.015813
-0.012253
-0.009522
-0.007242
-0.005240
-0.003428
-0.001760
-0.000207
0.001253
0.002641
-0.006669
-0.006669
-0.006719
-0.006848
-0.007070
-0.007396
-0.007833
-0.008388
-0.009066
-0.009871
-0.010806
-0.011874
-0.013078
-0.014418
-0.015898
-0.017522
-0.019296
-0.021232
-0.023343
-0.025644
-0.028163
-0.030949
-0.033987
-0.036416
-0.034374
-0.025805
-0.018549
-0.014015
-0.010685
-0.008013
-0.005747
-0.003761
-0.001981
-0.000357
0.001151
0.002580
-0.007336
-0.007336
-0.007390
-0.007525
-0.007756
-0.008093
-0.008542
-0.009105
-0.009786
-0.010586
-0.011503
-0.012536
-0.013684
-0.014947
-0.016325
-0.017825
-0.019452
-0.021222
-0.023149
-0.025255
-0.027569
-0.030141
-0.033055
-0.036092
-0.036918
-0.031208
-0.022529
-0.016302
-0.012274
-0.009156
-0.006580
-0.004392
-0.002472
-0.000749
0.000838
0.002343
-0.007894
-0.007894
-0.007950
-0.008087
-0.008320
-0.008657
-0.009104
-0.009663
-0.010334
-0.011114
-0.011999
-0.012983
-0.014059
-0.015225
-0.016481
-0.017831
-0.019284
-0.020854
-0.022561
-0.024429
-0.026489
-0.028782
-0.031390
-0.034370
-0.036759
-0.034905
-0.027578
-0.019874
-0.014458
-0.010825
-0.007869
-0.005413
-0.003290
-0.001419
0.000296
0.001928
-0.008359
-0.008359
-0.008414
-0.008548
-0.008776
-0.009106
-0.009543
-0.010090
-0.010745
-0.011503
-0.012355
-0.013288
-0.014289
-0.015352
-0.016474
-0.017660
-0.018922
-0.020275
-0.021742
-0.023351
-0.025132
-0.027122
-0.029380
-0.032015
-0.034820
-0.035676
-0.031612
-0.024472
-0.017906
-0.013241
-0.009643
-0.006904
-0.004490
-0.002397
-0.000486
0.001339
-0.008762
-0.008762
-0.008814
-0.008942
-0.009158
-0.009474
-0.009895
-0.010426
-0.011067
-0.011812
-0.012645
-0.013540
-0.014473
-0.015431
-0.016411
-0.017420
-0.018475
-0.019600
-0.020820
-0.022165
-0.023666
-0.025354
-0.027269
-0.029492
-0.032066
-0.034122
-0.033074
-0.028137
-0.022044
-0.016582
-0.012353
-0.009038
-0.006006
-0.003664
-0.001514
0.000566
-0.009153
-0.009153
-0.009201
-0.009318
-0.009517
-0.009811
-0.010211
-0.010725
-0.011361
-0.012114
-0.012960
-0.013843
-0.014716
-0.015559
-0.016375
-0.017185
-0.018015
-0.018900
-0.019872
-0.020963
-0.022203
-0.023616
-0.025224
-0.027064
-0.029202
-0.031383
-0.032099
-0.029591
-0.024865
-0.019804
-0.015463
-0.011623
-0.008235
-0.005471
-0.002922
-0.000452
-0.009614
-0.009614
-0.009656
-0.009756
-0.009931
-0.010195
-0.010564
-0.011057
-0.011695
-0.012491
-0.013407
-0.014313
-0.015111
-0.015797
-0.016403
-0.016975
-0.017560
-0.018202
-0.018936
-0.019797
-0.020813
-0.022004
-0.023369
-0.024894
-0.026607
-0.028460
-0.029755
-0.028988
-0.025771
-0.021530
-0.017425
-0.013643
-0.010461
-0.007278
-0.004310
-0.001446
-0.010258
-0.010258
-0.010291
-0.010370
-0.010513
-0.010735
-0.011056
-0.011511
-0.012147
-0.013017
-0.014095
-0.015026
-0.015658
-0.016091
-0.016426
-0.016741
-0.017089
-0.017511
-0.018038
-0.018706
-0.019551
-0.020599
-0.021821
-0.023111
-0.024453
-0.025870
-0.027094
-0.027191
-0.025290
-0.021888
-0.018136
-0.014546
-0.011384
-0.008121
-0.004986
-0.001916
-0.011236
-0.011236
-0.011258
-0.011314
-0.011418
-0.011586
-0.011837
-0.012212
-0.012787
-0.013697
-0.015027
-0.015793
-0.016085
-0.016202