<VTKFile type="StructuredGrid" version="0.1" byte_order="LittleEndian">
<StructuredGrid WholeExtent="1 71 1 81 0 0">
<Piece Extent="1 36 21 41 0 0">
<PointData></PointData>
<CellData></CellData>
<Points>
<DataArray NumberOfComponents="3" format="ascii" type ="Float32" Name="mesh">
0.000000 0.875000 0.0
0.042857 0.875000 0.0
0.085714 0.875000 0.0
0.128571 0.875000 0.0
0.171429 0.875000 0.0
0.214286 0.875000 0.0
0.257143 0.875000 0.0
0.300000 0.875000 0.0
0.342857 0.875000 0.0
0.385714 0.875000 0.0
0.428571 0.875000 0.0
0.471429 0.875000 0.0
0.514286 0.875000 0.0
0.557143 0.875000 0.0
0.600000 0.875000 0.0
0.642857 0.875000 0.0
0.685714 0.875000 0.0
0.728571 0.875000 0.0
0.771429 0.875000 0.0
0.814286 0.875000 0.0
0.857143 0.875000 0.0
0.900000 0.875000 0.0
0.942857 0.875000 0.0
0.985714 0.875000 0.0
1.028571 0.875000 0.0
1.071429 0.875000 0.0
1.114286 0.875000 0.0
1.157143 0.875000 0.0
1.200000 0.875000 0.0
1.242857 0.875000 0.0
1.285714 0.875000 0.0
1.328571 0.875000 0.0
1.371429 0.875000 0.0
1.414286 0.875000 0.0
1.457143 0.875000 0.0
1.500000 0.875000 0.0
0.000000 0.918750 0.0
0.042857 0.918750 0.0
0.085714 0.918750 0.0
0.128571 0.918750 0.0
0.171429 0.918750 0.0
0.214286 0.918750 0.0
0.257143 0.918750 0.0
0.300000 0.918750 0.0
0.342857 0.918750 0.0
0.385714 0.918750 0.0
0.428571 0.918750 0.0
0.471429 0.918750 0.0
0.514286 0.918750 0.0
0.557143 0.918750 0.0
0.600000 0.918750 0.0
0.642857 0.918750 0.0
0.685714 0.918750 0.0
0.728571 0.918750 0.0
0.771429 0.918750 0.0
0.814286 0.918750 0.0
0.857143 0.918750 0.0
0.900000 0.918750 0.0
0.942857 0.918750 0.0
0.985714 0.918750 0.0
1.028571 0.918750 0.0
1.071429 0.918750 0.0
1.114286 0.918750 0.0
1.157143 0.918750 0.0
1.200000 0.918750 0.0
1.242857 0.918750 0.0
1.285714 0.918750 0.0
1.328571 0.918750 0.0
1.371429 0.918750 0.0
1.414286 0.918750 0.0
1.457143 0.918750 0.0
1.500000 0.918750 0.0
0.000000 0.962500 0.0
0.042857 0.962500 0.0
0.085714 0.962500 0.0
0.128571 0.962500 0.0
0.171429 0.962500 0.0
0.214286 0.962500 0.0
0.257143 0.962500 0.0
0.300000 0.962500 0.0
0.342857 0.962500 0.0
0.385714 0.962500 0.0
0.428571 0.962500 0.0
0.471429 0.962500 0.0
0.514286 0.962500 0.0
0.557143 0.962500 0.0
0.600000 0.962500 0.0
0.642857 0.962500 0.0
0.685714 0.962500 0.0
0.728571 0.962500 0.0
0.771429 0.962500 0.0
0.814286 0.962500 0.0
0.857143 0.962500 0.0
0.900000 0.962500 0.0
0.942857 0.962500 0.0
0.985714 0.962500 0.0
1.028571 0.962500 0.0
1.071429 0.962500 0.0
1.114286 0.962500 0.0
1.157143 0.962500 0.0
1.200000 0.962500 0.0
1.242857 0.962500 0.0
1.285714 0.962500 0.0
1.328571 0.962500 0.0
1.371429 0.962500 0.0
1.414286 0.962500 0.0
1.457143 0.962500 0.0
1.500000 0.962500 0.0
0.000000 1.006250 0.0
0.042857 1.006250 0.0
0.085714 1.006250 0.0
0.128571 1.006250 0.0
0.171429 1.006250 0.0
0.214286 1.006250 0.0
0.257143 1.006250 0.0
0.300000 1.006250 0.0
0.342857 1.006250 0.0
0.385714 1.006250 0.0
0.428571 1.006250 0.0
0.471429 1.006250 0.0
0.514286 1.006250 0.0
0.557143 1.006250 0.0
0.600000 1.006250 0.0
0.642857 1.006250 0.0
0.685714 1.006250 0.0
0.728571 1.006250 0.0
0.771429 1.006250 0.0
0.814286 1.006250 0.0
0.857143 1.006250 0.0
0.900000 1.006250 0.0
0.942857 1.006250 0.0
0.985714 1.006250 0.0
1.028571 1.006250 0.0
1.071429 1.006250 0.0
1.114286 1.006250 0.0
1.157143 1.006250 0.0
1.200000 1.006250 0.0
1.242857 1.006250 0.0
1.285714 1.006250 0.0
1.328571 1.006250 0.0
1.371429 1.006250 0.0
1.414286 1.006250 0.0
1.457143 1.006250 0.0
1.500000 1.006250 0.0
0.000000 1.050000 0.0
0.042857 1.050000 0.0
0.085714 1.050000 0.0
0.128571 1.050000 0.0
0.171429 1.050000 0.0
0.214286 1.050000 0.0
0.257143 1.050000 0.0
0.300000 1.050000 0.0
0.342857 1.050000 0.0
0.385714 1.050000 0.0
0.428571 1.050000 0.0
0.471429 1.050000 0.0
0.514286 1.050000 0.0
0.557143 1.050000 0.0
0.600000 1.050000 0.0
0.642857 1.050000 0.0
0.685714 1.050000 0.0
0.728571 1.050000 0.0
0.771429 1.050000 0.0
0.814286 1.050000 0.0
0.857143 1.050000 0.0
0.900000 1.050000 0.0
0.942857 1.050000 0.0
0.985714 1.050000 0.0
1.028571 1.050000 0.0
1.071429 1.050000 0.0
1.114286 1.050000 0.0
1.157143 1.050000 0.0
1.200000 1.050000 0.0
1.242857 1.050000 0.0
1.285714 1.050000 0.0
1.328571 1.050000 0.0
1.371429 1.050000 0.0
1.414286 1.050000 0.0
1.457143 1.050000 0.0
1.500000 1.050000 0.0
0.000000 1.093750 0.0
0.042857 1.093750 0.0
0.085714 1.093750 0.0
0.128571 1.093750 0.0
0.171429 1.093750 0.0
0.214286 1.093750 0.0
0.257143 1.093750 0.0
0.300000 1.093750 0.0
0.342857 1.093750 0.0
0.385714 1.093750 0.0
0.428571 1.093750 0.0
0.471429 1.093750 0.0
0.514286 1.093750 0.0
0.557143 1.093750 0.0
0.600000 1.093750 0.0
0.642857 1.093750 0.0
0.685714 1.093750 0.0
0.728571 1.093750 0.0
0.771429 1.093750 0.0
0.814286 1.093750 0.0
0.857143 1.093750 0.0
0.900000 1.093750 0.0
0.942857 1.093750 0.0
0.985714 1.093750 0.0
1.028571 1.093750 0.0
1.071429 1.093750 0.0
1.114286 1.093750 0.0
1.157143 1.093750 0.0
1.200000 1.093750 0.0
1.242857 1.093750 0.0
1.285714 1.093750 0.0
1.328571 1.093750 0.0
1.371429 1.093750 0.0
1.414286 1.093750 0.0
1.457143 1.093750 0.0
1.500000 1.093750 0.0
0.000000 1.137500 0.0
0.042857 1.137500 0.0
0.085714 1.137500 0.0
0.128571 1.137500 0.0
0.171429 1.137500 0.0
0.214286 1.137500 0.0
0.257143 1.137500 0.0
0.300000 1.137500 0.0
0.342857 1.137500 0.0
0.385714 1.137500 0.0
0.428571 1.137500 0.0
0.471429 1.137500 0.0
0.514286 1.137500 0.0
0.557143 1.137500 0.0
0.600000 1.137500 0.0
0.642857 1.137500 0.0
0.685714 1.137500 0.0
0.728571 1.137500 0.0
0.771429 1.137500 0.0
0.814286 1.137500 0.0
0.857143 1.137500 0.0
0.900000 1.137500 0.0
0.942857 1.137500 0.0
0.985714 1.137500 0.0
1.028571 1.137500 0.0
1.071429 1.137500 0.0
1.114286 1.137500 0.0
1.157143 1.137500 0.0
1.200000 1.137500 0.0
1.242857 1.137500 0.0
1.285714 1.137500 0.0
1.328571 1.137500 0.0
1.371429 1.137500 0.0
1.414286 1.137500 0.0
1.457143 1.137500 0.0
1.500000 1.137500 0.0
0.000000 1.181250 0.0
0.042857 1.181250 0.0
0.085714 1.181250 0.0
0.128571 1.181250 0.0
0.171429 1.181250 0.0
0.214286 1.181250 0.0
0.257143 1.181250 0.0
0.300000 1.181250 0.0
0.342857 1.181250 0.0
0.385714 1.181250 0.0
0.428571 1.181250 0.0
0.471429 1.181250 0.0
0.514286 1.181250 0.0
0.557143 1.181250 0.0
0.600000 1.181250 0.0
0.642857 1.181250 0.0
0.685714 1.181250 0.0
0.728571 1.181250 0.0
0.771429 1.181250 0.0
0.814286 1.181250 0.0
0.857143 1.181250 0.0
0.900000 1.181250 0.0
0.942857 1.181250 0.0
0.985714 1.181250 0.0
1.028571 1.181250 0.0
1.071429 1.181250 0.0
1.114286 1.181250 0.0
1.157143 1.181250 0.0
1.200000 1.181250 0.0
1.242857 1.181250 0.0
1.285714 1.181250 0.0
1.328571 1.181250 0.0
1.371429 1.181250 0.0
1.414286 1.181250 0.0
1.457143 1.181250 0.0
1.500000 1.181250 0.0
0.000000 1.225000 0.0
0.042857 1.225000 0.0
0.085714 1.225000 0.0
0.128571 1.225000 0.0
0.171429 1.225000 0.0
0.214286 1.225000 0.0
0.257143 1.225000 0.0
0.300000 1.225000 0.0
0.342857 1.225000 0.0
0.385714 1.225000 0.0
0.428571 1.225000 0.0
0.471429 1.225000 0.0
0.514286 1.225000 0.0
0.557143 1.225000 0.0
0.600000 1.225000 0.0
0.642857 1.225000 0.0
0.685714 1.225000 0.0
0.728571 1.225000 0.0
0.771429 1.225000 0.0
0.814286 1.225000 0.0
0.857143 1.225000 0.0
0.900000 1.225000 0.0
0.942857 1.225000 0.0
0.985714 1.225000 0.0
1.028571 1.225000 0.0
1.071429 1.225000 0.0
1.114286 1.225000 0.0
1.157143 1.225000 0.0
1.200000 1.225000 0.0
1.242857 1.225000 0.0
1.285714 1.225000 0.0
1.328571 1.225000 0.0
1.371429 1.225000 0.0
1.414286 1.225000 0.0
1.457143 1.225000 0.0
1.500000 1.225000 0.0
0.000000 1.268750 0.0
0.042857 1.268750 0.0
0.085714 1.268750 0.0
0.128571 1.268750 0.0
0.171429 1.268750 0.0
0.214286 1.268750 0.0
0.257143 1.268750 0.0
0.300000 1.268750 0.0
0.342857 1.268750 0.0
0.385714 1.268750 0.0
0.428571 1.268750 0.0
0.471429 1.268750 0.0
0.514286 1.268750 0.0
0.557143 1.268750 0.0
0.600000 1.268750 0.0
0.642857 1.268750 0.0
0.685714 1.268750 0.0
0.728571 1.268750 0.0
0.771429 1.268750 0.0
0.814286 1.268750 0.0
0.857143 1.268750 0.0
0.900000 1.268750 0.0
0.942857 1.268750 0.0
0.985714 1.268750 0.0
1.028571 1.268750 0.0
1.071429 1.268750 0.0
1.114286 1.268750 0.0
1.157143 1.268750 0.0
1.200000 1.268750 0.0
1.242857 1.268750 0.0
1.285714 1.268750 0.0
1.328571 1.268750 0.0
1.371429 1.268750 0.0
1.414286 1.268750 0.0
1.457143 1.268750 0.0
1.500000 1.268750 0.0
0.000000 1.312500 0.0
0.042857 1.312500 0.0
0.085714 1.312500 0.0
0.128571 1.312500 0.0
0.171429 1.312500 0.0
0.214286 1.312500 0.0
0.257143 1.312500 0.0
0.300000 1.312500 0.0
0.342857 1.312500 0.0
0.385714 1.312500 0.0
0.428571 1.312500 0.0
0.471429 1.312500 0.0
0.514286 1.312500 0.0
0.557143 1.312500 0.0
0.600000 1.312500 0.0
0.642857 1.312500 0.0
0.685714 1.312500 0.0
0.728571 1.312500 0.0
0.771429 1.312500 0.0
0.814286 1.312500 0.0
0.857143 1.312500 0.0
0.900000 1.312500 0.0
0.942857 1.312500 0.0
0.985714 1.312500 0.0
1.028571 1.312500 0.0
1.071429 1.312500 0.0
1.114286 1.312500 0.0
1.157143 1.312500 0.0
1.200000 1.312500 0.0
1.242857 1.312500 0.0
1.285714 1.312500 0.0
1.328571 1.312500 0.0
1.371429 1.312500 0.0
1.414286 1.312500 0.0
1.457143 1.312500 0.0
1.500000 1.312500 0.0
0.000000 1.356250 0.0
0.042857 1.356250 0.0
0.085714 1.356250 0.0
0.128571 1.356250 0.0
0.171429 1.356250 0.0
0.214286 1.356250 0.0
0.257143 1.356250 0.0
0.300000 1.356250 0.0
0.342857 1.356250 0.0
0.385714 1.356250 0.0
0.428571 1.356250 0.0
0.471429 1.356250 0.0
0.514286 1.356250 0.0
0.557143 1.356250 0.0
0.600000 1.356250 0.0
0.642857 1.356250 0.0
0.685714 1.356250 0.0
0.728571 1.356250 0.0
0.771429 1.356250 0.0
0.814286 1.356250 0.0
0.857143 1.356250 0.0
0.900000 1.356250 0.0
0.942857 1.356250 0.0
0.985714 1.356250 0.0
1.028571 1.356250 0.0
1.071429 1.356250 0.0
1.114286 1.356250 0.0
1.157143 1.356250 0.0
1.200000 1.356250 0.0
1.242857 1.356250 0.0
1.285714 1.356250 0.0
1.328571 1.356250 0.0
1.371429 1.356250 0.0
1.414286 1.356250 0.0
1.457143 1.356250 0.0
1.500000 1.356250 0.0
0.000000 1.400000 0.0
0.042857 1.400000 0.0
0.085714 1.400000 0.0
0.128571 1.400000 0.0
0.171429 1.400000 0.0
0.214286 1.400000 0.0
0.257143 1.400000 0.0
0.300000 1.400000 0.0
0.342857 1.400000 0.0
0.385714 1.400000 0.0
0.428571 1.400000 0.0
0.471429 1.400000 0.0
0.514286 1.400000 0.0
0.557143 1.400000 0.0
0.600000 1.400000 0.0
0.642857 1.400000 0.0
0.685714 1.400000 0.0
0.728571 1.400000 0.0
0.771429 1.400000 0.0
0.814286 1.400000 0.0
0.857143 1.400000 0.0
0.900000 1.400000 0.0
0.942857 1.400000 0.0
0.985714 1.400000 0.0
1.028571 1.400000 0.0
1.071429 1.400000 0.0
1.114286 1.400000 0.0
1.157143 1.400000 0.0
1.200000 1.400000 0.0
1.242857 1.400000 0.0
1.285714 1.400000 0.0
1.328571 1.400000 0.0
1.371429 1.400000 0.0
1.414286 1.400000 0.0
1.457143 1.400000 0.0
1.500000 1.400000 0.0
0.000000 1.443750 0.0
0.042857 1.443750 0.0
0.085714 1.443750 0.0
0.128571 1.443750 0.0
0.171429 1.443750 0.0
0.214286 1.443750 0.0
0.257143 1.443750 0.0
0.300000 1.443750 0.0
0.342857 1.443750 0.0
0.385714 1.443750 0.0
0.428571 1.443750 0.0
0.471429 1.443750 0.0
0.514286 1.443750 0.0
0.557143 1.443750 0.0
0.600000 1.443750 0.0
0.642857 1.443750 0.0
0.685714 1.443750 0.0
0.728571 1.443750 0.0
0.771429 1.443750 0.0
0.814286 1.443750 0.0
0.857143 1.443750 0.0
0.900000 1.443750 0.0
0.942857 1.443750 0.0
0.985714 1.443750 0.0
1.028571 1.443750 0.0
1.071429 1.443750 0.0
1.114286 1.443750 0.0
1.157143 1.443750 0.0
1.200000 1.443750 0.0
1.242857 1.443750 0.0
1.285714 1.443750 0.0
1.328571 1.443750 0.0
1.371429 1.443750 0.0
1.414286 1.443750 0.0
1.457143 1.443750 0.0
1.500000 1.443750 0.0
0.000000 1.487500 0.0
0.042857 1.487500 0.0
0.085714 1.487500 0.0
0.128571 1.487500 0.0
0.171429 1.487500 0.0
0.214286 1.487500 0.0
0.257143 1.487500 0.0
0.300000 1.487500 0.0
0.342857 1.487500 0.0
0.385714 1.487500 0.0
0.428571 1.487500 0.0
0.471429 1.487500 0.0
0.514286 1.487500 0.0
0.557143 1.487500 0.0
0.600000 1.487500 0.0
0.642857 1.487500 0.0
0.685714 1.487500 0.0
0.728571 1.487500 0.0
0.771429 1.487500 0.0
0.814286 1.487500 0.0
0.857143 1.487500 0.0
0.900000 1.487500 0.0
0.942857 1.487500 0.0
0.985714 1.487500 0.0
1.028571 1.487500 0.0
1.071429 1.487500 0.0
1.114286 1.487500 0.0
1.157143 1.487500 0.0
1.200000 1.487500 0.0
1.242857 1.487500 0.0
1.285714 1.487500 0.0
1.328571 1.487500 0.0
1.371429 1.487500 0.0
1.414286 1.487500 0.0
1.457143 1.487500 0.0
1.500000 1.487500 0.0
0.000000 1.531250 0.0
0.042857 1.531250 0.0
0.085714 1.531250 0.0
0.128571 1.531250 0.0
0.171429 1.531250 0.0
0.214286 1.531250 0.0
0.257143 1.531250 0.0
0.300000 1.531250 0.0
0.342857 1.531250 0.0
0.385714 1.531250 0.0
0.428571 1.531250 0.0
0.471429 1.531250 0.0
0.514286 1.531250 0.0
0.557143 1.531250 0.0
0.600000 1.531250 0.0
0.642857 1.531250 0.0
0.685714 1.531250 0.0
0.728571 1.531250 0.0
0.771429 1.531250 0.0
0.814286 1.531250 0.0
0.857143 1.531250 0.0
0.900000 1.531250 0.0
0.942857 1.531250 0.0
0.985714 1.531250 0.0
1.028571 1.531250 0.0
1.071429 1.531250 0.0
1.114286 1.531250 0.0
1.157143 1.531250 0.0
1.200000 1.531250 0.0
1.242857 1.531250 0.0
1.285714 1.531250 0.0
1.328571 1.531250 0.0
1.371429 1.531250 0.0
1.414286 1.531250 0.0
1.457143 1.531250 0.0
1.500000 1.531250 0.0
0.000000 1.575000 0.0
0.042857 1.575000 0.0
0.085714 1.575000 0.0
0.128571 1.575000 0.0
0.171429 1.575000 0.0
0.214286 1.575000 0.0
0.257143 1.575000 0.0
0.300000 1.575000 0.0
0.342857 1.575000 0.0
0.385714 1.575000 0.0
0.428571 1.575000 0.0
0.471429 1.575000 0.0
0.514286 1.575000 0.0
0.557143 1.575000 0.0
0.600000 1.575000 0.0
0.642857 1.575000 0.0
0.685714 1.575000 0.0
0.728571 1.575000 0.0
0.771429 1.575000 0.0
0.814286 1.575000 0.0
0.857143 1.575000 0.0
0.900000 1.575000 0.0
0.942857 1.575000 0.0
0.985714 1.575000 0.0
1.028571 1.575000 0.0
1.071429 1.575000 0.0
1.114286 1.575000 0.0
1.157143 1.575000 0.0
1.200000 1.575000 0.0
1.242857 1.575000 0.0
1.285714 1.575000 0.0
1.328571 1.575000 0.0
1.371429 1.575000 0.0
1.414286 1.575000 0.0
1.457143 1.575000 0.0
1.500000 1.575000 0.0
0.000000 1.618750 0.0
0.042857 1.618750 0.0
0.085714 1.618750 0.0
0.128571 1.618750 0.0
0.171429 1.618750 0.0
0.214286 1.618750 0.0
0.257143 1.618750 0.0
0.300000 1.618750 0.0
0.342857 1.618750 0.0
0.385714 1.618750 0.0
0.428571 1.618750 0.0
0.471429 1.618750 0.0
0.514286 1.618750 0.0
0.557143 1.618750 0.0
0.600000 1.618750 0.0
0.642857 1.618750 0.0
0.685714 1.618750 0.0
0.728571 1.618750 0.0
0.771429 1.618750 0.0
0.814286 1.618750 0.0
0.857143 1.618750 0.0
0.900000 1.618750 0.0
0.942857 1.618750 0.0
0.985714 1.618750 0.0
1.028571 1.618750 0.0
1.071429 1.618750 0.0
1.114286 1.618750 0.0
1.157143 1.618750 0.0
1.200000 1.618750 0.0
1.242857 1.618750 0.0
1.285714 1.618750 0.0
1.328571 1.618750 0.0
1.371429 1.618750 0.0
1.414286 1.618750 0.0
1.457143 1.618750 0.0
1.500000 1.618750 0.0
0.000000 1.662500 0.0
0.042857 1.662500 0.0
0.085714 1.662500 0.0
0.128571 1.662500 0.0
0.171429 1.662500 0.0
0.214286 1.662500 0.0
0.257143 1.662500 0.0
0.300000 1.662500 0.0
0.342857 1.662500 0.0
0.385714 1.662500 0.0
0.428571 1.662500 0.0
0.471429 1.662500 0.0
0.514286 1.662500 0.0
0.557143 1.662500 0.0
0.600000 1.662500 0.0
0.642857 1.662500 0.0
0.685714 1.662500 0.0
0.728571 1.662500 0.0
0.771429 1.662500 0.0
0.814286 1.662500 0.0
0.857143 1.662500 0.0
0.900000 1.662500 0.0
0.942857 1.662500 0.0
0.985714 1.662500 0.0
1.028571 1.662500 0.0
1.071429 1.662500 0.0
1.114286 1.662500 0.0
1.157143 1.662500 0.0
1.200000 1.662500 0.0
1.242857 1.662500 0.0
1.285714 1.662500 0.0
1.328571 1.662500 0.0
1.371429 1.662500 0.0
1.414286 1.662500 0.0
1.457143 1.662500 0.0
1.500000 1.662500 0.0
0.000000 1.706250 0.0
0.042857 1.706250 0.0
0.085714 1.706250 0.0
0.128571 1.706250 0.0
0.171429 1.706250 0.0
0.214286 1.706250 0.0
0.257143 1.706250 0.0
0.300000 1.706250 0.0
0.342857 1.706250 0.0
0.385714 1.706250 0.0
0.428571 1.706250 0.0
0.471429 1.706250 0.0
0.514286 1.706250 0.0
0.557143 1.706250 0.0
0.600000 1.706250 0.0
0.642857 1.706250 0.0
0.685714 1.706250 0.0
0.728571 1.706250 0.0
0.771429 1.706250 0.0
0.814286 1.706250 0.0
0.857143 1.706250 0.0
0.900000 1.706250 0.0
0.942857 1.706250 0.0
0.985714 1.706250 0.0
1.028571 1.706250 0.0
1.071429 1.706250 0.0
1.114286 1.706250 0.0
1.157143 1.706250 0.0
1.200000 1.706250 0.0
1.242857 1.706250 0.0
1.285714 1.706250 0.0
1.328571 1.706250 0.0
1.371429 1.706250 0.0
1.414286 1.706250 0.0
1.457143 1.706250 0.0
1.500000 1.706250 0.0
0.000000 1.750000 0.0
0.042857 1.750000 0.0
0.085714 1.750000 0.0
0.128571 1.750000 0.0
0.171429 1.750000 0.0
0.214286 1.750000 0.0
0.257143 1.750000 0.0
0.300000 1.750000 0.0
0.342857 1.750000 0.0
0.385714 1.750000 0.0
0.428571 1.750000 0.0
0.471429 1.750000 0.0
0.514286 1.750000 0.0
0.557143 1.750000 0.0
0.600000 1.750000 0.0
0.642857 1.750000 0.0
0.685714 1.750000 0.0
0.728571 1.750000 0.0
0.771429 1.750000 0.0
0.814286 1.750000 0.0
0.857143 1.750000 0.0
0.900000 1.750000 0.0
0.942857 1.750000 0.0
0.985714 1.750000 0.0
1.028571 1.750000 0.0
1.071429 1.750000 0.0
1.114286 1.750000 0.0
1.157143 1.750000 0.0
1.200000 1.750000 0.0
1.242857 1.750000 0.0
1.285714 1.750000 0.0
1.328571 1.750000 0.0
1.371429 1.750000 0.0
1.414286 1.750000 0.0
1.457143 1.750000 0.0
1.500000 1.750000 0.0
</DataArray></Points>
<PointData>
<DataArray NumberOfComponents="1" format="ascii" type ="Float32" Name="phi">
1.119451
1.104534
1.065657
1.027054
0.988791
0.950793
0.913003
0.875419
0.838098
0.801163
0.764654
0.728519
0.692762
0.657497
0.622817
0.588698
0.555162
0.522410
0.490557
0.459490
0.429152
0.399705
0.371429
0.344489
0.319042
0.295444
0.273827
0.254003
0.235804
0.219223
0.204911
0.193573
0.184747
0.177820
0.173252
0.171747
1.106239
1.086535
1.047248
1.008259
0.969550
0.931026
0.892666
0.854508
0.816662
0.779211
0.742108
0.705295
0.668804
0.632761
0.597264
0.562306
0.527934
0.494319
0.461496
0.429381
0.398066
0.367765
0.338567
0.310448
0.283634
0.258633
0.235774
0.214990
0.196013
0.178623
0.163254
0.151051
0.141791
0.134511
0.129658
0.128040
1.089511
1.069613
1.029952
0.990541
0.951315
0.912228
0.873303
0.834638
0.796334
0.758353
0.720616
0.683120
0.645950
0.609234
0.573012
0.537242
0.501974
0.467358
0.433470
0.400327
0.368096
0.336890
0.306634
0.277353
0.249306
0.222844
0.198437
0.176417
0.156569
0.138412
0.121890
0.108645
0.098901
0.091244
0.086078
0.084334
1.074040
1.053941
1.013844
0.973919
0.934131
0.894488
0.855061
0.815949
0.777146
0.738560
0.700171
0.662040
0.624288
0.586965
0.550017
0.513423
0.477271
0.441710
0.406819
0.372642
0.339358
0.307041
0.275656
0.245310
0.216138
0.188267
0.162118
0.138436
0.117478
0.098617
0.080854
0.066345
0.056069
0.048019
0.042513
0.040627
1.059889
1.039558
0.998964
0.958506
0.918189
0.878047
0.838151
0.798528
0.759118
0.719886
0.680874
0.642184
0.603877
0.565901
0.528212
0.490849
0.453927
0.417543
0.381702
0.346450
0.311968
0.278394
0.245838
0.214407
0.184100
0.154948
0.127180
0.101426
0.078567
0.058996
0.040946
0.025494
0.014306
0.005738
-0.000153
-0.002219
1.046964
1.026424
0.985394
0.944484
0.903714
0.863107
0.822688
0.782454
0.742398
0.702541
0.662950
0.623693
0.584745
0.546055
0.507645
0.469594
0.431979
0.394803
0.358052
0.321804
0.286197
0.251353
0.217463
0.184725
0.153191
0.122848
0.093728
0.066060
0.041569
0.021074
0.002414
-0.014108
-0.026910
-0.036437
-0.042777
-0.045032
1.035206
1.014501
0.973133
0.931864
0.890706
0.849661
0.808731
0.767928
0.727287
0.686844
0.646642
0.606703
0.567019
0.527596
0.488487
0.449759
0.411418
0.373443
0.335857
0.298736
0.262152
0.226148
0.190867
0.156574
0.123571
0.091954
0.061603
0.032748
0.007071
-0.015246
-0.035766
-0.053893
-0.068518
-0.079298
-0.086211
-0.088658
1.024548
1.003711
0.962073
0.920508
0.879021
0.837607
0.796269
0.755025
0.713904
0.672930
0.632116
0.591479
0.551057
0.510885
0.471021
0.431510
0.392346
0.353547
0.315157
0.277212
0.239733
0.202740
0.166285
0.130482
0.095668
0.062379
0.031041
0.001337
-0.026400
-0.051361
-0.073762
-0.093476
-0.109769
-0.121873
-0.129565
-0.132257
1.014920
0.993975
0.952110
0.910299
0.868540
0.826830
0.785176
0.743593
0.702095
0.660691
0.619384
0.578189
0.537139
0.496270
0.455621
0.415235
0.375150
0.335428
0.296135
0.257287
0.218906
0.181016
0.143607
0.106659
0.070199
0.035465
0.002862
-0.028646
-0.058719
-0.086309
-0.110918
-0.132434
-0.150450
-0.164092
-0.172811
-0.175829
1.006268
0.985228
0.943168
0.901146
0.859162
0.817216
0.775314
0.733465
0.691675
0.649943
0.608272
0.566673
0.525162
0.483756
0.442471
0.401335
0.360394
0.319709
0.279350
0.239374
0.199870
0.160929
0.122554
0.084730
0.047378
0.011659
-0.022775
-0.056711
-0.089104
-0.119293
-0.146528
-0.170344
-0.190376
-0.205835
-0.215883
-0.219354
0.998562
0.977437
0.935202
0.892997
0.850821
0.808675
0.766568
0.724503
0.682478
0.640493
0.598552
0.556661
0.514827
0.473053
0.431344
0.389712
0.348174
0.306751
0.265478
0.224415
0.183652
0.143306
0.103471
0.064269
0.026908
-0.009398
-0.046038
-0.082073
-0.116818
-0.149667
-0.179851
-0.206571
-0.229187
-0.246905
-0.258675
-0.262789
0.991813
0.970610
0.928214
0.885842
0.843493
0.801172
0.758882
0.716625
0.674399
0.632204
0.590044
0.547926
0.505849
0.463815
0.421825
0.379882
0.337991
0.296154
0.254373
0.212658
0.171027
0.129516
0.088198
0.047176
0.009170
-0.027827
-0.066372
-0.104244
-0.141163
-0.176666
-0.210008
-0.240198
-0.266190
-0.286903
-0.301007
-0.306045
0.986120
0.964841
0.922290
0.879756
0.837243
0.794752
0.752288
0.709848
0.667432
0.625040
0.582679
0.540354
0.498064
0.455809
0.413591
0.371415
0.329284
0.287195
0.245147
0.203136
0.161158
0.119209
0.077323
0.034960
-0.006043
-0.045281
-0.084556
-0.123571
-0.162098
-0.199781
-0.236052
-0.269968
-0.300160
-0.324975
-0.342475
-0.348925
0.981641
0.960320
0.917655
0.874974
0.832307
0.789657
0.747021
0.704400
0.661794
0.619206
0.576639
0.534099
0.491583
0.449091
0.406628
0.364200
0.321809
0.279457
0.237147
0.194883
0.152667
0.110495
0.068414
0.025676
-0.018326
-0.060699
-0.100829
-0.140749
-0.180348
-0.219486
-0.257910
-0.295013
-0.329554
-0.359527
-0.382065
-0.390832
0.976865
0.956345
0.914449
0.871681
0.828902
0.786131
0.743364
0.700604
0.657850
0.615105
0.572371
0.529649
0.486937
0.444237
0.401553
0.358888
0.316243
0.273620
0.231023
0.188459
0.145928
0.103431
0.060976
0.018609
-0.025066
-0.068575
-0.110445
-0.152094
-0.193460
-0.234450
-0.274933
-0.314657
-0.352971
-0.388337
-0.417593
-0.429964
0.959896
0.946142
0.911815
0.869831
0.826999
0.784162
0.741326
0.698492
0.655660
0.612830
0.570003
0.527179
0.484357
0.441539
0.398726
0.355918
0.313115
0.270317
0.227525
0.184743
0.141971
0.099211
0.056436
0.014831
-0.026435
-0.068889
-0.111665
-0.154413
-0.197082
-0.239575
-0.281813
-0.323730
-0.365159
-0.405454
-0.442297
-0.459319
0.924154
0.920156
0.902665
0.868719
0.826839
0.783995
0.741158
0.698324
0.655493
0.612665
0.569839
0.527016
0.484197
0.441386
0.398580
0.355782
0.312993
0.270213
0.227445
0.184691
0.141954
0.099235
0.056497
0.015434
-0.024442
-0.066014
-0.108733
-0.151417
-0.194092
-0.236742
-0.279322
-0.321739
-0.363619
-0.403895
-0.439997
-0.456611
0.880648
0.880556
0.876792
0.860333
0.827449
0.785978
0.743231
0.700494
0.657774
0.615065
0.572368
0.529684
0.487018
0.444375
0.401758
0.359165
0.316599
0.274068
0.231576
0.189129
0.146732
0.104385
0.062083
0.020936
-0.019941
-0.062138
-0.104718
-0.147142
-0.189330
-0.231128
-0.272275
-0.312346
-0.350447
-0.384704
-0.412133
-0.423827
0.836898
0.836917
0.836885
0.833771
0.819084
0.788064
0.747380
0.704824
0.662289
0.619776
0.577290
0.534830
0.492401
0.450013
0.407670
0.365371
0.323115
0.280913
0.238774
0.196703
0.154706
0.112786
0.070940
0.029504
-0.013414
-0.056575
-0.097996
-0.139096
-0.179646
-0.219266
-0.257451
-0.293553
-0.326445
-0.354338
-0.375221
-0.383787
0.793148
0.793168
0.793214
0.793232
0.790992
0.778751
0.750478
0.710949
0.668530
0.626241
0.583988
0.541769
0.499593
0.457470
0.415408
0.373406
0.331464
0.289589
0.247794
0.206086
0.164471
0.122958
0.081555
0.040289
-0.002736
-0.045208
-0.085058
-0.124318
-0.162579
-0.199358
-0.234244
-0.266580
-0.295040
-0.318190
-0.334962
-0.341725
0.760336
0.749418
0.749465
0.749524
0.749583
0.748348
0.738994
0.714180
0.676324
0.634148
0.592116
0.550160
0.508259
0.466426
0.424674
0.383006
0.341421
0.299931
0.258557
0.217324
0.176257
0.135405
0.094808
0.054491
0.013571
-0.027564
-0.066963
-0.104367
-0.140129
-0.174141
-0.206129
-0.235131
-0.259722
-0.279293
-0.293362
-0.298955
</DataArray>
<DataArray NumberOfComponents="1" format="ascii" type ="Float32" Name="u">
0.000000
0.004818
0.004833
0.004863
0.004911
0.004977
0.005063
0.005169
0.005297
0.005447
0.005620
0.005819
0.006044
0.006297
0.006579
0.006890
0.007231
0.007599
0.007991
0.008402
0.008822
0.009236
0.009627
0.009969
0.010236
0.010393
0.010408
0.010245
0.009869
0.009251
0.008371
0.007219
0.005800
0.004145
0.002291
0.000303
0.004711
0.004711
0.004721
0.004748
0.004796
0.004864
0.004954
0.005066
0.005202
0.005363
0.005550
0.005766
0.006013
0.006292
0.006606
0.006958
0.007347
0.007775
0.008239
0.008735
0.009256
0.009786
0.010307
0.010790
0.011201
0.011503
0.011650
0.011596
0.011292
0.010694
0.009770
0.008492
0.006859
0.004942
0.002763
0.000385
0.004567
0.004567
0.004580
0.004609
0.004657
0.004728
0.004822
0.004940
0.005083
0.005253
0.005452
0.005683
0.005949
0.006253
0.006598
0.006988
0.007425
0.007913
0.008451
0.009038
0.009668
0.010327
0.010995
0.011641
0.012222
0.012689
0.012984
0.013042
0.012787
0.012169
0.011141
0.009670
0.007681
0.005461
0.003007
0.000335
0.004398
0.004398
0.004413
0.004444
0.004496
0.004569
0.004666
0.004788
0.004936
0.005114
0.005323
0.005567
0.005850
0.006175
0.006548
0.006973
0.007456
0.008002
0.008614
0.009295
0.010040
0.010840
0.011673
0.012500
0.013268
0.013908
0.014335
0.014442
0.014112
0.013325
0.011980
0.010235
0.007562
0.005032
0.002558
0.000044
0.004209
0.004209
0.004225
0.004258
0.004310
0.004386
0.004485
0.004609
0.004762
0.004944
0.005161
0.005414
0.005710
0.006052
0.006448
0.006904
0.007428
0.008028
0.008712
0.009486
0.010352
0.011301
0.012311
0.013333
0.014291
0.015076
0.015550
0.015514
0.014750
0.013469
0.011152
0.008829
0.005846
0.003421
0.001410
-0.000353
0.003999
0.003999
0.004015
0.004049
0.004102
0.004178
0.004278
0.004403
0.004557
0.004742
0.004962
0.005222
0.005525
0.005880
0.006293
0.006774
0.007333
0.007980
0.008730
0.009593
0.010577
0.011679
0.012871
0.014085
0.015200
0.016037
0.016347
0.015721
0.013799
0.011330
0.007987
0.005100
0.003166
0.001605
0.000403
-0.000510
0.003768
0.003768
0.003785
0.003818
0.003871
0.003946
0.004045
0.004169
0.004322
0.004506
0.004726
0.004987
0.005293
0.005654
0.006078
0.006575
0.007158
0.007844
0.008649
0.009592
0.010687
0.011934
0.013295
0.014664
0.015836
0.016494
0.016195
0.014017
0.010598
0.006962
0.004200
0.001971
0.001184
0.000501
-0.000031
-0.000406
0.003517
0.003517
0.003533
0.003566
0.003617
0.003690
0.003786
0.003906
0.004055
0.004235
0.004451
0.004707
0.005011
0.005370
0.005795
0.006299
0.006896
0.007606
0.008452
0.009459
0.010647
0.012016
0.013502
0.014929
0.015938
0.015939
0.014239
0.010177
0.006391
0.003305
0.001786
0.000729
0.000325
0.000035
-0.000158
-0.000270
0.003247
0.003247
0.003262
0.003292
0.003341
0.003410
0.003501
0.003616
0.003758
0.003929
0.004136
0.004382
0.004676
0.005026
0.005442
0.005939
0.006535
0.007253
0.008119
0.009166
0.010417
0.011860
0.013389
0.014720
0.015263
0.014002
0.010302
0.006104
0.003318
0.001554
0.000654
0.000162
-0.000018
-0.000120
-0.000166
-0.000173
0.002957
0.002957
0.002971
0.002999
0.003045
0.003108
0.003192
0.003298
0.003429
0.003589
0.003781
0.004012
0.004288
0.004618
0.005014
0.005492
0.006069
0.006773
0.007633
0.008686
0.009953
0.011398
0.012855
0.013923
0.013814
0.010634
0.006015
0.003251
0.001603
0.000600
0.000124
-0.000079
-0.000136
-0.000151
-0.000140
-0.000111
0.002650
0.002650
0.002663
0.002688
0.002729
0.002786
0.002860
0.002955
0.003072
0.003215
0.003388
0.003596
0.003846
0.004147
0.004510
0.004951
0.005490
0.006153
0.006975
0.007990
0.009212
0.010569
0.011802
0.012374
0.011420
0.006793
0.003218
0.001552
0.000602
0.000097
-0.000109
-0.000165
-0.000159
-0.000137
-0.000106
-0.000069
0.002327
0.002327
0.002338
0.002360
0.002395
0.002444
0.002507
0.002588
0.002688
0.002810
0.002957
0.003136
0.003352
0.003613
0.003930
0.004317
0.004793
0.005385
0.006126
0.007050
0.008161
0.009351
0.010260
0.010142
0.008061
0.004076
0.001775
0.000630
0.000086
-0.000133
-0.000186
-0.000169
-0.000136
-0.000104
-0.000072
-0.000038
0.001991
0.001991
0.002001
0.002019
0.002047
0.002086
0.002136
0.002200
0.002279
0.002376
0.002494
0.002637
0.002809
0.003019
0.003275
0.003590
0.003978
0.004464
0.005075
0.005841
0.006769
0.007756
0.008429
0.007880
0.004388
0.002097
0.000705
0.000076
-0.000148
-0.000189
-0.000163
-0.000122
-0.000088
-0.000062
-0.000038
-0.000014
0.001645
0.001645
0.001653
0.001666
0.001686
0.001714
0.001750
0.001796
0.001851
0.001919
0.002002
0.002102
0.002224
0.002372
0.002554
0.002776
0.003051
0.003392
0.003817
0.004348
0.004991
0.005697
0.006202
0.005642
0.001564
0.000490
0.000021
-0.000125
-0.000134
-0.000101
-0.000067
-0.000042
-0.000027
-0.000016
-0.000007
0.000005
0.001292
0.001292
0.001297
0.001305
0.001318
0.001334
0.001354
0.001378
0.001408
0.001444
0.001487
0.001540
0.001604
0.001682
0.001776
0.001891
0.002028
0.002192
0.002381
0.002597
0.002841
0.003115
0.003345
0.003027
0.000522
0.000107
0.000067
0.000078
0.000079
0.000069
0.000055
0.000041
0.000030
0.000023
0.000019
0.000018
0.000933
0.000933
0.000936
0.000940
0.000944
0.000948
0.000951
0.000953
0.000955
0.000956
0.000957
0.000959
0.000960
0.000961
0.000960
0.000955
0.000940
0.000906
0.000833
0.000698
0.000492
0.000268
0.000198
0.000408
0.000485
0.000541
0.000513
0.000416
0.000303
0.000208
0.000141
0.000097
0.000069
0.000050
0.000038
0.000028
0.000574
0.000574
0.000576
0.000575
0.000570
0.000561
0.000546
0.000526
0.000499
0.000464
0.000422
0.000370
0.000305
0.000226
0.000126
-0.000002
-0.000172
-0.000404
-0.000729
-0.001185
-0.001787
-0.002445
-0.002808
-0.002160
0.000530
0.000883
0.000744
0.000532
0.000356
0.000237
0.000162
0.000117
0.000088
0.000068
0.000053
0.000038
0.000218
0.000218
0.000218
0.000214
0.000201
0.000179
0.000147
0.000103
0.000047
-0.000023
-0.000110
-0.000215
-0.000344
-0.000503
-0.000700
-0.000947
-0.001262
-0.001671
-0.002207
-0.002906
-0.003774
-0.004711
-0.005330
-0.004638
-0.000371
0.000309
0.000350
0.000289
0.000225
0.000176
0.000143
0.000120
0.000102
0.000085
0.000069
0.000052
-0.000131