<VTKFile type="StructuredGrid" version="0.1" byte_order="LittleEndian">
<StructuredGrid WholeExtent="1 71 1 81 0 0">
<Piece Extent="1 36 61 81 0 0">
<PointData></PointData>
<CellData></CellData>
<Points>
<DataArray NumberOfComponents="3" format="ascii" type ="Float32" Name="mesh">
0.000000 2.625000 0.0
0.042857 2.625000 0.0
0.085714 2.625000 0.0
0.128571 2.625000 0.0
0.171429 2.625000 0.0
0.214286 2.625000 0.0
0.257143 2.625000 0.0
0.300000 2.625000 0.0
0.342857 2.625000 0.0
0.385714 2.625000 0.0
0.428571 2.625000 0.0
0.471429 2.625000 0.0
0.514286 2.625000 0.0
0.557143 2.625000 0.0
0.600000 2.625000 0.0
0.642857 2.625000 0.0
0.685714 2.625000 0.0
0.728571 2.625000 0.0
0.771429 2.625000 0.0
0.814286 2.625000 0.0
0.857143 2.625000 0.0
0.900000 2.625000 0.0
0.942857 2.625000 0.0
0.985714 2.625000 0.0
1.028571 2.625000 0.0
1.071429 2.625000 0.0
1.114286 2.625000 0.0
1.157143 2.625000 0.0
1.200000 2.625000 0.0
1.242857 2.625000 0.0
1.285714 2.625000 0.0
1.328571 2.625000 0.0
1.371429 2.625000 0.0
1.414286 2.625000 0.0
1.457143 2.625000 0.0
1.500000 2.625000 0.0
0.000000 2.668750 0.0
0.042857 2.668750 0.0
0.085714 2.668750 0.0
0.128571 2.668750 0.0
0.171429 2.668750 0.0
0.214286 2.668750 0.0
0.257143 2.668750 0.0
0.300000 2.668750 0.0
0.342857 2.668750 0.0
0.385714 2.668750 0.0
0.428571 2.668750 0.0
0.471429 2.668750 0.0
0.514286 2.668750 0.0
0.557143 2.668750 0.0
0.600000 2.668750 0.0
0.642857 2.668750 0.0
0.685714 2.668750 0.0
0.728571 2.668750 0.0
0.771429 2.668750 0.0
0.814286 2.668750 0.0
0.857143 2.668750 0.0
0.900000 2.668750 0.0
0.942857 2.668750 0.0
0.985714 2.668750 0.0
1.028571 2.668750 0.0
1.071429 2.668750 0.0
1.114286 2.668750 0.0
1.157143 2.668750 0.0
1.200000 2.668750 0.0
1.242857 2.668750 0.0
1.285714 2.668750 0.0
1.328571 2.668750 0.0
1.371429 2.668750 0.0
1.414286 2.668750 0.0
1.457143 2.668750 0.0
1.500000 2.668750 0.0
0.000000 2.712500 0.0
0.042857 2.712500 0.0
0.085714 2.712500 0.0
0.128571 2.712500 0.0
0.171429 2.712500 0.0
0.214286 2.712500 0.0
0.257143 2.712500 0.0
0.300000 2.712500 0.0
0.342857 2.712500 0.0
0.385714 2.712500 0.0
0.428571 2.712500 0.0
0.471429 2.712500 0.0
0.514286 2.712500 0.0
0.557143 2.712500 0.0
0.600000 2.712500 0.0
0.642857 2.712500 0.0
0.685714 2.712500 0.0
0.728571 2.712500 0.0
0.771429 2.712500 0.0
0.814286 2.712500 0.0
0.857143 2.712500 0.0
0.900000 2.712500 0.0
0.942857 2.712500 0.0
0.985714 2.712500 0.0
1.028571 2.712500 0.0
1.071429 2.712500 0.0
1.114286 2.712500 0.0
1.157143 2.712500 0.0
1.200000 2.712500 0.0
1.242857 2.712500 0.0
1.285714 2.712500 0.0
1.328571 2.712500 0.0
1.371429 2.712500 0.0
1.414286 2.712500 0.0
1.457143 2.712500 0.0
1.500000 2.712500 0.0
0.000000 2.756250 0.0
0.042857 2.756250 0.0
0.085714 2.756250 0.0
0.128571 2.756250 0.0
0.171429 2.756250 0.0
0.214286 2.756250 0.0
0.257143 2.756250 0.0
0.300000 2.756250 0.0
0.342857 2.756250 0.0
0.385714 2.756250 0.0
0.428571 2.756250 0.0
0.471429 2.756250 0.0
0.514286 2.756250 0.0
0.557143 2.756250 0.0
0.600000 2.756250 0.0
0.642857 2.756250 0.0
0.685714 2.756250 0.0
0.728571 2.756250 0.0
0.771429 2.756250 0.0
0.814286 2.756250 0.0
0.857143 2.756250 0.0
0.900000 2.756250 0.0
0.942857 2.756250 0.0
0.985714 2.756250 0.0
1.028571 2.756250 0.0
1.071429 2.756250 0.0
1.114286 2.756250 0.0
1.157143 2.756250 0.0
1.200000 2.756250 0.0
1.242857 2.756250 0.0
1.285714 2.756250 0.0
1.328571 2.756250 0.0
1.371429 2.756250 0.0
1.414286 2.756250 0.0
1.457143 2.756250 0.0
1.500000 2.756250 0.0
0.000000 2.800000 0.0
0.042857 2.800000 0.0
0.085714 2.800000 0.0
0.128571 2.800000 0.0
0.171429 2.800000 0.0
0.214286 2.800000 0.0
0.257143 2.800000 0.0
0.300000 2.800000 0.0
0.342857 2.800000 0.0
0.385714 2.800000 0.0
0.428571 2.800000 0.0
0.471429 2.800000 0.0
0.514286 2.800000 0.0
0.557143 2.800000 0.0
0.600000 2.800000 0.0
0.642857 2.800000 0.0
0.685714 2.800000 0.0
0.728571 2.800000 0.0
0.771429 2.800000 0.0
0.814286 2.800000 0.0
0.857143 2.800000 0.0
0.900000 2.800000 0.0
0.942857 2.800000 0.0
0.985714 2.800000 0.0
1.028571 2.800000 0.0
1.071429 2.800000 0.0
1.114286 2.800000 0.0
1.157143 2.800000 0.0
1.200000 2.800000 0.0
1.242857 2.800000 0.0
1.285714 2.800000 0.0
1.328571 2.800000 0.0
1.371429 2.800000 0.0
1.414286 2.800000 0.0
1.457143 2.800000 0.0
1.500000 2.800000 0.0
0.000000 2.843750 0.0
0.042857 2.843750 0.0
0.085714 2.843750 0.0
0.128571 2.843750 0.0
0.171429 2.843750 0.0
0.214286 2.843750 0.0
0.257143 2.843750 0.0
0.300000 2.843750 0.0
0.342857 2.843750 0.0
0.385714 2.843750 0.0
0.428571 2.843750 0.0
0.471429 2.843750 0.0
0.514286 2.843750 0.0
0.557143 2.843750 0.0
0.600000 2.843750 0.0
0.642857 2.843750 0.0
0.685714 2.843750 0.0
0.728571 2.843750 0.0
0.771429 2.843750 0.0
0.814286 2.843750 0.0
0.857143 2.843750 0.0
0.900000 2.843750 0.0
0.942857 2.843750 0.0
0.985714 2.843750 0.0
1.028571 2.843750 0.0
1.071429 2.843750 0.0
1.114286 2.843750 0.0
1.157143 2.843750 0.0
1.200000 2.843750 0.0
1.242857 2.843750 0.0
1.285714 2.843750 0.0
1.328571 2.843750 0.0
1.371429 2.843750 0.0
1.414286 2.843750 0.0
1.457143 2.843750 0.0
1.500000 2.843750 0.0
0.000000 2.887500 0.0
0.042857 2.887500 0.0
0.085714 2.887500 0.0
0.128571 2.887500 0.0
0.171429 2.887500 0.0
0.214286 2.887500 0.0
0.257143 2.887500 0.0
0.300000 2.887500 0.0
0.342857 2.887500 0.0
0.385714 2.887500 0.0
0.428571 2.887500 0.0
0.471429 2.887500 0.0
0.514286 2.887500 0.0
0.557143 2.887500 0.0
0.600000 2.887500 0.0
0.642857 2.887500 0.0
0.685714 2.887500 0.0
0.728571 2.887500 0.0
0.771429 2.887500 0.0
0.814286 2.887500 0.0
0.857143 2.887500 0.0
0.900000 2.887500 0.0
0.942857 2.887500 0.0
0.985714 2.887500 0.0
1.028571 2.887500 0.0
1.071429 2.887500 0.0
1.114286 2.887500 0.0
1.157143 2.887500 0.0
1.200000 2.887500 0.0
1.242857 2.887500 0.0
1.285714 2.887500 0.0
1.328571 2.887500 0.0
1.371429 2.887500 0.0
1.414286 2.887500 0.0
1.457143 2.887500 0.0
1.500000 2.887500 0.0
0.000000 2.931250 0.0
0.042857 2.931250 0.0
0.085714 2.931250 0.0
0.128571 2.931250 0.0
0.171429 2.931250 0.0
0.214286 2.931250 0.0
0.257143 2.931250 0.0
0.300000 2.931250 0.0
0.342857 2.931250 0.0
0.385714 2.931250 0.0
0.428571 2.931250 0.0
0.471429 2.931250 0.0
0.514286 2.931250 0.0
0.557143 2.931250 0.0
0.600000 2.931250 0.0
0.642857 2.931250 0.0
0.685714 2.931250 0.0
0.728571 2.931250 0.0
0.771429 2.931250 0.0
0.814286 2.931250 0.0
0.857143 2.931250 0.0
0.900000 2.931250 0.0
0.942857 2.931250 0.0
0.985714 2.931250 0.0
1.028571 2.931250 0.0
1.071429 2.931250 0.0
1.114286 2.931250 0.0
1.157143 2.931250 0.0
1.200000 2.931250 0.0
1.242857 2.931250 0.0
1.285714 2.931250 0.0
1.328571 2.931250 0.0
1.371429 2.931250 0.0
1.414286 2.931250 0.0
1.457143 2.931250 0.0
1.500000 2.931250 0.0
0.000000 2.975000 0.0
0.042857 2.975000 0.0
0.085714 2.975000 0.0
0.128571 2.975000 0.0
0.171429 2.975000 0.0
0.214286 2.975000 0.0
0.257143 2.975000 0.0
0.300000 2.975000 0.0
0.342857 2.975000 0.0
0.385714 2.975000 0.0
0.428571 2.975000 0.0
0.471429 2.975000 0.0
0.514286 2.975000 0.0
0.557143 2.975000 0.0
0.600000 2.975000 0.0
0.642857 2.975000 0.0
0.685714 2.975000 0.0
0.728571 2.975000 0.0
0.771429 2.975000 0.0
0.814286 2.975000 0.0
0.857143 2.975000 0.0
0.900000 2.975000 0.0
0.942857 2.975000 0.0
0.985714 2.975000 0.0
1.028571 2.975000 0.0
1.071429 2.975000 0.0
1.114286 2.975000 0.0
1.157143 2.975000 0.0
1.200000 2.975000 0.0
1.242857 2.975000 0.0
1.285714 2.975000 0.0
1.328571 2.975000 0.0
1.371429 2.975000 0.0
1.414286 2.975000 0.0
1.457143 2.975000 0.0
1.500000 2.975000 0.0
0.000000 3.018750 0.0
0.042857 3.018750 0.0
0.085714 3.018750 0.0
0.128571 3.018750 0.0
0.171429 3.018750 0.0
0.214286 3.018750 0.0
0.257143 3.018750 0.0
0.300000 3.018750 0.0
0.342857 3.018750 0.0
0.385714 3.018750 0.0
0.428571 3.018750 0.0
0.471429 3.018750 0.0
0.514286 3.018750 0.0
0.557143 3.018750 0.0
0.600000 3.018750 0.0
0.642857 3.018750 0.0
0.685714 3.018750 0.0
0.728571 3.018750 0.0
0.771429 3.018750 0.0
0.814286 3.018750 0.0
0.857143 3.018750 0.0
0.900000 3.018750 0.0
0.942857 3.018750 0.0
0.985714 3.018750 0.0
1.028571 3.018750 0.0
1.071429 3.018750 0.0
1.114286 3.018750 0.0
1.157143 3.018750 0.0
1.200000 3.018750 0.0
1.242857 3.018750 0.0
1.285714 3.018750 0.0
1.328571 3.018750 0.0
1.371429 3.018750 0.0
1.414286 3.018750 0.0
1.457143 3.018750 0.0
1.500000 3.018750 0.0
0.000000 3.062500 0.0
0.042857 3.062500 0.0
0.085714 3.062500 0.0
0.128571 3.062500 0.0
0.171429 3.062500 0.0
0.214286 3.062500 0.0
0.257143 3.062500 0.0
0.300000 3.062500 0.0
0.342857 3.062500 0.0
0.385714 3.062500 0.0
0.428571 3.062500 0.0
0.471429 3.062500 0.0
0.514286 3.062500 0.0
0.557143 3.062500 0.0
0.600000 3.062500 0.0
0.642857 3.062500 0.0
0.685714 3.062500 0.0
0.728571 3.062500 0.0
0.771429 3.062500 0.0
0.814286 3.062500 0.0
0.857143 3.062500 0.0
0.900000 3.062500 0.0
0.942857 3.062500 0.0
0.985714 3.062500 0.0
1.028571 3.062500 0.0
1.071429 3.062500 0.0
1.114286 3.062500 0.0
1.157143 3.062500 0.0
1.200000 3.062500 0.0
1.242857 3.062500 0.0
1.285714 3.062500 0.0
1.328571 3.062500 0.0
1.371429 3.062500 0.0
1.414286 3.062500 0.0
1.457143 3.062500 0.0
1.500000 3.062500 0.0
0.000000 3.106250 0.0
0.042857 3.106250 0.0
0.085714 3.106250 0.0
0.128571 3.106250 0.0
0.171429 3.106250 0.0
0.214286 3.106250 0.0
0.257143 3.106250 0.0
0.300000 3.106250 0.0
0.342857 3.106250 0.0
0.385714 3.106250 0.0
0.428571 3.106250 0.0
0.471429 3.106250 0.0
0.514286 3.106250 0.0
0.557143 3.106250 0.0
0.600000 3.106250 0.0
0.642857 3.106250 0.0
0.685714 3.106250 0.0
0.728571 3.106250 0.0
0.771429 3.106250 0.0
0.814286 3.106250 0.0
0.857143 3.106250 0.0
0.900000 3.106250 0.0
0.942857 3.106250 0.0
0.985714 3.106250 0.0
1.028571 3.106250 0.0
1.071429 3.106250 0.0
1.114286 3.106250 0.0
1.157143 3.106250 0.0
1.200000 3.106250 0.0
1.242857 3.106250 0.0
1.285714 3.106250 0.0
1.328571 3.106250 0.0
1.371429 3.106250 0.0
1.414286 3.106250 0.0
1.457143 3.106250 0.0
1.500000 3.106250 0.0
0.000000 3.150000 0.0
0.042857 3.150000 0.0
0.085714 3.150000 0.0
0.128571 3.150000 0.0
0.171429 3.150000 0.0
0.214286 3.150000 0.0
0.257143 3.150000 0.0
0.300000 3.150000 0.0
0.342857 3.150000 0.0
0.385714 3.150000 0.0
0.428571 3.150000 0.0
0.471429 3.150000 0.0
0.514286 3.150000 0.0
0.557143 3.150000 0.0
0.600000 3.150000 0.0
0.642857 3.150000 0.0
0.685714 3.150000 0.0
0.728571 3.150000 0.0
0.771429 3.150000 0.0
0.814286 3.150000 0.0
0.857143 3.150000 0.0
0.900000 3.150000 0.0
0.942857 3.150000 0.0
0.985714 3.150000 0.0
1.028571 3.150000 0.0
1.071429 3.150000 0.0
1.114286 3.150000 0.0
1.157143 3.150000 0.0
1.200000 3.150000 0.0
1.242857 3.150000 0.0
1.285714 3.150000 0.0
1.328571 3.150000 0.0
1.371429 3.150000 0.0
1.414286 3.150000 0.0
1.457143 3.150000 0.0
1.500000 3.150000 0.0
0.000000 3.193750 0.0
0.042857 3.193750 0.0
0.085714 3.193750 0.0
0.128571 3.193750 0.0
0.171429 3.193750 0.0
0.214286 3.193750 0.0
0.257143 3.193750 0.0
0.300000 3.193750 0.0
0.342857 3.193750 0.0
0.385714 3.193750 0.0
0.428571 3.193750 0.0
0.471429 3.193750 0.0
0.514286 3.193750 0.0
0.557143 3.193750 0.0
0.600000 3.193750 0.0
0.642857 3.193750 0.0
0.685714 3.193750 0.0
0.728571 3.193750 0.0
0.771429 3.193750 0.0
0.814286 3.193750 0.0
0.857143 3.193750 0.0
0.900000 3.193750 0.0
0.942857 3.193750 0.0
0.985714 3.193750 0.0
1.028571 3.193750 0.0
1.071429 3.193750 0.0
1.114286 3.193750 0.0
1.157143 3.193750 0.0
1.200000 3.193750 0.0
1.242857 3.193750 0.0
1.285714 3.193750 0.0
1.328571 3.193750 0.0
1.371429 3.193750 0.0
1.414286 3.193750 0.0
1.457143 3.193750 0.0
1.500000 3.193750 0.0
0.000000 3.237500 0.0
0.042857 3.237500 0.0
0.085714 3.237500 0.0
0.128571 3.237500 0.0
0.171429 3.237500 0.0
0.214286 3.237500 0.0
0.257143 3.237500 0.0
0.300000 3.237500 0.0
0.342857 3.237500 0.0
0.385714 3.237500 0.0
0.428571 3.237500 0.0
0.471429 3.237500 0.0
0.514286 3.237500 0.0
0.557143 3.237500 0.0
0.600000 3.237500 0.0
0.642857 3.237500 0.0
0.685714 3.237500 0.0
0.728571 3.237500 0.0
0.771429 3.237500 0.0
0.814286 3.237500 0.0
0.857143 3.237500 0.0
0.900000 3.237500 0.0
0.942857 3.237500 0.0
0.985714 3.237500 0.0
1.028571 3.237500 0.0
1.071429 3.237500 0.0
1.114286 3.237500 0.0
1.157143 3.237500 0.0
1.200000 3.237500 0.0
1.242857 3.237500 0.0
1.285714 3.237500 0.0
1.328571 3.237500 0.0
1.371429 3.237500 0.0
1.414286 3.237500 0.0
1.457143 3.237500 0.0
1.500000 3.237500 0.0
0.000000 3.281250 0.0
0.042857 3.281250 0.0
0.085714 3.281250 0.0
0.128571 3.281250 0.0
0.171429 3.281250 0.0
0.214286 3.281250 0.0
0.257143 3.281250 0.0
0.300000 3.281250 0.0
0.342857 3.281250 0.0
0.385714 3.281250 0.0
0.428571 3.281250 0.0
0.471429 3.281250 0.0
0.514286 3.281250 0.0
0.557143 3.281250 0.0
0.600000 3.281250 0.0
0.642857 3.281250 0.0
0.685714 3.281250 0.0
0.728571 3.281250 0.0
0.771429 3.281250 0.0
0.814286 3.281250 0.0
0.857143 3.281250 0.0
0.900000 3.281250 0.0
0.942857 3.281250 0.0
0.985714 3.281250 0.0
1.028571 3.281250 0.0
1.071429 3.281250 0.0
1.114286 3.281250 0.0
1.157143 3.281250 0.0
1.200000 3.281250 0.0
1.242857 3.281250 0.0
1.285714 3.281250 0.0
1.328571 3.281250 0.0
1.371429 3.281250 0.0
1.414286 3.281250 0.0
1.457143 3.281250 0.0
1.500000 3.281250 0.0
0.000000 3.325000 0.0
0.042857 3.325000 0.0
0.085714 3.325000 0.0
0.128571 3.325000 0.0
0.171429 3.325000 0.0
0.214286 3.325000 0.0
0.257143 3.325000 0.0
0.300000 3.325000 0.0
0.342857 3.325000 0.0
0.385714 3.325000 0.0
0.428571 3.325000 0.0
0.471429 3.325000 0.0
0.514286 3.325000 0.0
0.557143 3.325000 0.0
0.600000 3.325000 0.0
0.642857 3.325000 0.0
0.685714 3.325000 0.0
0.728571 3.325000 0.0
0.771429 3.325000 0.0
0.814286 3.325000 0.0
0.857143 3.325000 0.0
0.900000 3.325000 0.0
0.942857 3.325000 0.0
0.985714 3.325000 0.0
1.028571 3.325000 0.0
1.071429 3.325000 0.0
1.114286 3.325000 0.0
1.157143 3.325000 0.0
1.200000 3.325000 0.0
1.242857 3.325000 0.0
1.285714 3.325000 0.0
1.328571 3.325000 0.0
1.371429 3.325000 0.0
1.414286 3.325000 0.0
1.457143 3.325000 0.0
1.500000 3.325000 0.0
0.000000 3.368750 0.0
0.042857 3.368750 0.0
0.085714 3.368750 0.0
0.128571 3.368750 0.0
0.171429 3.368750 0.0
0.214286 3.368750 0.0
0.257143 3.368750 0.0
0.300000 3.368750 0.0
0.342857 3.368750 0.0
0.385714 3.368750 0.0
0.428571 3.368750 0.0
0.471429 3.368750 0.0
0.514286 3.368750 0.0
0.557143 3.368750 0.0
0.600000 3.368750 0.0
0.642857 3.368750 0.0
0.685714 3.368750 0.0
0.728571 3.368750 0.0
0.771429 3.368750 0.0
0.814286 3.368750 0.0
0.857143 3.368750 0.0
0.900000 3.368750 0.0
0.942857 3.368750 0.0
0.985714 3.368750 0.0
1.028571 3.368750 0.0
1.071429 3.368750 0.0
1.114286 3.368750 0.0
1.157143 3.368750 0.0
1.200000 3.368750 0.0
1.242857 3.368750 0.0
1.285714 3.368750 0.0
1.328571 3.368750 0.0
1.371429 3.368750 0.0
1.414286 3.368750 0.0
1.457143 3.368750 0.0
1.500000 3.368750 0.0
0.000000 3.412500 0.0
0.042857 3.412500 0.0
0.085714 3.412500 0.0
0.128571 3.412500 0.0
0.171429 3.412500 0.0
0.214286 3.412500 0.0
0.257143 3.412500 0.0
0.300000 3.412500 0.0
0.342857 3.412500 0.0
0.385714 3.412500 0.0
0.428571 3.412500 0.0
0.471429 3.412500 0.0
0.514286 3.412500 0.0
0.557143 3.412500 0.0
0.600000 3.412500 0.0
0.642857 3.412500 0.0
0.685714 3.412500 0.0
0.728571 3.412500 0.0
0.771429 3.412500 0.0
0.814286 3.412500 0.0
0.857143 3.412500 0.0
0.900000 3.412500 0.0
0.942857 3.412500 0.0
0.985714 3.412500 0.0
1.028571 3.412500 0.0
1.071429 3.412500 0.0
1.114286 3.412500 0.0
1.157143 3.412500 0.0
1.200000 3.412500 0.0
1.242857 3.412500 0.0
1.285714 3.412500 0.0
1.328571 3.412500 0.0
1.371429 3.412500 0.0
1.414286 3.412500 0.0
1.457143 3.412500 0.0
1.500000 3.412500 0.0
0.000000 3.456250 0.0
0.042857 3.456250 0.0
0.085714 3.456250 0.0
0.128571 3.456250 0.0
0.171429 3.456250 0.0
0.214286 3.456250 0.0
0.257143 3.456250 0.0
0.300000 3.456250 0.0
0.342857 3.456250 0.0
0.385714 3.456250 0.0
0.428571 3.456250 0.0
0.471429 3.456250 0.0
0.514286 3.456250 0.0
0.557143 3.456250 0.0
0.600000 3.456250 0.0
0.642857 3.456250 0.0
0.685714 3.456250 0.0
0.728571 3.456250 0.0
0.771429 3.456250 0.0
0.814286 3.456250 0.0
0.857143 3.456250 0.0
0.900000 3.456250 0.0
0.942857 3.456250 0.0
0.985714 3.456250 0.0
1.028571 3.456250 0.0
1.071429 3.456250 0.0
1.114286 3.456250 0.0
1.157143 3.456250 0.0
1.200000 3.456250 0.0
1.242857 3.456250 0.0
1.285714 3.456250 0.0
1.328571 3.456250 0.0
1.371429 3.456250 0.0
1.414286 3.456250 0.0
1.457143 3.456250 0.0
1.500000 3.456250 0.0
0.000000 3.500000 0.0
0.042857 3.500000 0.0
0.085714 3.500000 0.0
0.128571 3.500000 0.0
0.171429 3.500000 0.0
0.214286 3.500000 0.0
0.257143 3.500000 0.0
0.300000 3.500000 0.0
0.342857 3.500000 0.0
0.385714 3.500000 0.0
0.428571 3.500000 0.0
0.471429 3.500000 0.0
0.514286 3.500000 0.0
0.557143 3.500000 0.0
0.600000 3.500000 0.0
0.642857 3.500000 0.0
0.685714 3.500000 0.0
0.728571 3.500000 0.0
0.771429 3.500000 0.0
0.814286 3.500000 0.0
0.857143 3.500000 0.0
0.900000 3.500000 0.0
0.942857 3.500000 0.0
0.985714 3.500000 0.0
1.028571 3.500000 0.0
1.071429 3.500000 0.0
1.114286 3.500000 0.0
1.157143 3.500000 0.0
1.200000 3.500000 0.0
1.242857 3.500000 0.0
1.285714 3.500000 0.0
1.328571 3.500000 0.0
1.371429 3.500000 0.0
1.414286 3.500000 0.0
1.457143 3.500000 0.0
1.500000 3.500000 0.0
</DataArray></Points>
<PointData>
<DataArray NumberOfComponents="1" format="ascii" type ="Float32" Name="phi">
-0.136668
-0.125688
-0.125574
-0.125413
-0.125218
-0.124992
-0.124728
-0.124419
-0.124055
-0.123626
-0.123122
-0.122531
-0.121843
-0.121046
-0.120129
-0.119079
-0.117873
-0.116505
-0.114984
-0.113289
-0.111402
-0.109392
-0.107443
-0.105624
-0.103836
-0.101999
-0.100092
-0.098132
-0.096144
-0.094179
-0.092298
-0.090580
-0.089117
-0.087985
-0.087249
-0.086969
-0.169480
-0.169437
-0.169324
-0.169162
-0.168967
-0.168741
-0.168477
-0.168167
-0.167803
-0.167373
-0.166868
-0.166276
-0.165586
-0.164787
-0.163868
-0.162813
-0.161603
-0.160230
-0.158703
-0.156999
-0.155106
-0.153098
-0.151154
-0.149336
-0.147547
-0.145708
-0.143799
-0.141837
-0.139850
-0.137888
-0.136013
-0.134304
-0.132850
-0.131728
-0.131000
-0.130722
-0.213230
-0.213187
-0.213073
-0.212912
-0.212717
-0.212490
-0.212225
-0.211916
-0.211551
-0.211120
-0.210614
-0.210020
-0.209329
-0.208528
-0.207606
-0.206548
-0.205333
-0.203956
-0.202422
-0.200710
-0.198812
-0.196805
-0.194866
-0.193050
-0.191259
-0.189417
-0.187506
-0.185543
-0.183557
-0.181598
-0.179730
-0.178029
-0.176586
-0.175474
-0.174753
-0.174478
-0.256980
-0.256937
-0.256823
-0.256661
-0.256466
-0.256239
-0.255974
-0.255664
-0.255298
-0.254867
-0.254359
-0.253765
-0.253072
-0.252269
-0.251344
-0.250282
-0.249063
-0.247681
-0.246142
-0.244422
-0.242518
-0.240513
-0.238578
-0.236764
-0.234971
-0.233127
-0.231213
-0.229250
-0.227266
-0.225310
-0.223448
-0.221758
-0.220325
-0.219223
-0.218509
-0.218237
-0.300730
-0.300687
-0.300572
-0.300410
-0.300215
-0.299987
-0.299723
-0.299412
-0.299046
-0.298614
-0.298105
-0.297509
-0.296815
-0.296010
-0.295082
-0.294016
-0.292793
-0.291407
-0.289862
-0.288133
-0.286225
-0.284223
-0.282292
-0.280479
-0.278685
-0.276838
-0.274922
-0.272958
-0.270976
-0.269024
-0.267169
-0.265488
-0.264066
-0.262974
-0.262267
-0.261998
-0.344480
-0.344436
-0.344322
-0.344160
-0.343964
-0.343736
-0.343471
-0.343160
-0.342793
-0.342360
-0.341851
-0.341254
-0.340558
-0.339750
-0.338820
-0.337751
-0.336523
-0.335132
-0.333581
-0.331846
-0.329933
-0.327933
-0.326006
-0.324195
-0.322399
-0.320550
-0.318632
-0.316668
-0.314687
-0.312740
-0.310892
-0.309221
-0.307809
-0.306727
-0.306027
-0.305762
-0.388229
-0.388186
-0.388071
-0.387909
-0.387713
-0.387485
-0.387219
-0.386908
-0.386541
-0.386107
-0.385597
-0.384998
-0.384301
-0.383491
-0.382558
-0.381486
-0.380254
-0.378859
-0.377301
-0.375558
-0.373641
-0.371644
-0.369722
-0.367911
-0.366114
-0.364263
-0.362343
-0.360379
-0.358401
-0.356458
-0.354617
-0.352955
-0.351555
-0.350482
-0.349790
-0.349527
-0.431979
-0.431936
-0.431821
-0.431658
-0.431462
-0.431234
-0.430968
-0.430656
-0.430288
-0.429854
-0.429343
-0.428743
-0.428044
-0.427232
-0.426297
-0.425221
-0.423985
-0.422585
-0.421022
-0.419271
-0.417350
-0.415356
-0.413438
-0.411629
-0.409830
-0.407976
-0.406055
-0.404091
-0.402115
-0.400177
-0.398344
-0.396692
-0.395302
-0.394239
-0.393554
-0.393293
-0.475729
-0.475685
-0.475570
-0.475408
-0.475211
-0.474983
-0.474717
-0.474404
-0.474036
-0.473601
-0.473089
-0.472488
-0.471787
-0.470974
-0.470035
-0.468956
-0.467716
-0.466312
-0.464742
-0.462984
-0.461060
-0.459068
-0.457156
-0.455347
-0.453546
-0.451691
-0.449768
-0.447804
-0.445831
-0.443898
-0.442072
-0.440430
-0.439051
-0.437998
-0.437319
-0.437062
-0.519478
-0.519435
-0.519319
-0.519157
-0.518960
-0.518731
-0.518465
-0.518152
-0.517784
-0.517348
-0.516835
-0.516233
-0.515530
-0.514715
-0.513774
-0.512692
-0.511448
-0.510039
-0.508463
-0.506697
-0.504770
-0.502782
-0.500874
-0.499066
-0.497264
-0.495406
-0.493482
-0.491519
-0.489548
-0.487620
-0.485802
-0.484170
-0.482801
-0.481758
-0.481086
-0.480831
-0.563228
-0.563184
-0.563069
-0.562906
-0.562709
-0.562480
-0.562214
-0.561901
-0.561531
-0.561095
-0.560581
-0.559978
-0.559274
-0.558457
-0.557513
-0.556427
-0.555179
-0.553766
-0.552184
-0.550411
-0.548481
-0.546496
-0.544592
-0.542786
-0.540982
-0.539122
-0.537197
-0.535235
-0.533267
-0.531343
-0.529534
-0.527911
-0.526553
-0.525519
-0.524854
-0.524602
-0.606977
-0.606934
-0.606818
-0.606655
-0.606458
-0.606229
-0.605962
-0.605649
-0.605279
-0.604842
-0.604328
-0.603723
-0.603018
-0.602199
-0.601253
-0.600163
-0.598911
-0.597493
-0.595905
-0.594125
-0.592193
-0.590211
-0.588312
-0.586506
-0.584701
-0.582839
-0.580913
-0.578951
-0.576986
-0.575068
-0.573267
-0.571654
-0.570307
-0.569282
-0.568623
-0.568374
-0.650727
-0.650683
-0.650568
-0.650405
-0.650207
-0.649978
-0.649711
-0.649397
-0.649027
-0.648590
-0.648074
-0.647469
-0.646762
-0.645941
-0.644992
-0.643899
-0.642644
-0.641221
-0.639626
-0.637839
-0.635905
-0.633927
-0.632031
-0.630227
-0.628420
-0.626557
-0.624630
-0.622669
-0.620707
-0.618795
-0.617001
-0.615399
-0.614062
-0.613046
-0.612394
-0.612147
-0.694477
-0.694433
-0.694317
-0.694154
-0.693957
-0.693727
-0.693460
-0.693146
-0.692775
-0.692337
-0.691821
-0.691214
-0.690506
-0.689683
-0.688732
-0.687636
-0.686376
-0.684949
-0.683347
-0.681554
-0.679618
-0.677644
-0.675752
-0.673948
-0.672140
-0.670275
-0.668347
-0.666388
-0.664429
-0.662522
-0.660737
-0.659144
-0.657818
-0.656811
-0.656165
-0.655921
-0.738226
-0.738182
-0.738067
-0.737903
-0.737706
-0.737476
-0.737209
-0.736895
-0.736523
-0.736085
-0.735568
-0.734960
-0.734250
-0.733425
-0.732472
-0.731372
-0.730109
-0.728677
-0.727068
-0.725269
-0.723331
-0.721361
-0.719473
-0.717669
-0.715861
-0.713994
-0.712066
-0.710108
-0.708152
-0.706251
-0.704473
-0.702891
-0.701575
-0.700577
-0.699937
-0.699696
-0.781976
-0.781932
-0.781816
-0.781653
-0.781455
-0.781226
-0.780958
-0.780643
-0.780272
-0.779833
-0.779315
-0.778706
-0.777995
-0.777168
-0.776212
-0.775109
-0.773842
-0.772405
-0.770790
-0.768984
-0.767045
-0.765079
-0.763194
-0.761392
-0.759582
-0.757714
-0.755785
-0.753829
-0.751876
-0.749980
-0.748211
-0.746639
-0.745333
-0.744344
-0.743710
-0.743471
-0.825725
-0.825681
-0.825565
-0.825402
-0.825204
-0.824975
-0.824707
-0.824392
-0.824020
-0.823580
-0.823062
-0.822452
-0.821739
-0.820911
-0.819952
-0.818846
-0.817575
-0.816134
-0.814512
-0.812700
-0.810759
-0.808797
-0.806916
-0.805114
-0.803304
-0.801434
-0.799506
-0.797550
-0.795601
-0.793711
-0.791951
-0.790388
-0.789092
-0.788112
-0.787484
-0.787248
-0.869474
-0.869431
-0.869315
-0.869151
-0.868954
-0.868724
-0.868456
-0.868141
-0.867769
-0.867328
-0.866809
-0.866198
-0.865484
-0.864654
-0.863693
-0.862584
-0.861308
-0.859862
-0.858233
-0.856416
-0.854474
-0.852516
-0.850639
-0.848838
-0.847026
-0.845155
-0.843227
-0.841273
-0.839327
-0.837443
-0.835691
-0.834139
-0.832853
-0.831881
-0.831259
-0.831025
-0.913224
-0.913180
-0.913064
-0.912901
-0.912703
-0.912473
-0.912205
-0.911890
-0.911517
-0.911076
-0.910556
-0.909945
-0.909229
-0.908397
-0.907434
-0.906321
-0.905041
-0.903590
-0.901955
-0.900132
-0.898190
-0.896235
-0.894362
-0.892561
-0.890749
-0.888876
-0.886948
-0.884996
-0.883053
-0.881176
-0.879432
-0.877890
-0.876614
-0.875650
-0.875035
-0.874802
-0.956973
-0.956930
-0.956814
-0.956650
-0.956453
-0.956223
-0.955954
-0.955639
-0.955266
-0.954825
-0.954304
-0.953691
-0.952974
-0.952140
-0.951174
-0.950058
-0.948775
-0.947319
-0.945677
-0.943848
-0.941906
-0.939955
-0.938085
-0.936285
-0.934472
-0.932598
-0.930670
-0.928720
-0.926780
-0.924909
-0.923174
-0.921642
-0.920376
-0.919420
-0.918810
-0.918581
-0.978848
-0.978804
-0.978689
-0.978525
-0.978327
-0.978097
-0.977829
-0.977513
-0.977140
-0.976699
-0.976178
-0.975565
-0.974847
-0.974012
-0.973045
-0.971927
-0.970642
-0.969183
-0.967538
-0.965706
-0.963764
-0.961815
-0.959947
-0.958148
-0.956334
-0.954459
-0.952532
-0.950582
-0.948644
-0.946776
-0.945045
-0.943518
-0.942257
-0.941306
-0.940699
-0.940470
</DataArray>
<DataArray NumberOfComponents="1" format="ascii" type ="Float32" Name="u">
0.000000
-0.007988
-0.008000
-0.008021
-0.008051
-0.008091
-0.008139
-0.008194
-0.008256
-0.008323
-0.008393
-0.008464
-0.008531
-0.008593
-0.008643
-0.008677
-0.008684
-0.008654
-0.008569
-0.008402
-0.008119
-0.007703
-0.007311
-0.007041
-0.006836
-0.006634
-0.006393
-0.006084
-0.005685
-0.005183
-0.004570
-0.003842
-0.003005
-0.002074
-0.001073
-0.000032
-0.008060
-0.008060
-0.008078
-0.008101
-0.008128
-0.008162
-0.008201
-0.008244
-0.008292
-0.008342
-0.008392
-0.008440
-0.008482
-0.008516
-0.008536
-0.008536
-0.008509
-0.008445
-0.008332
-0.008157
-0.007910
-0.007594
-0.007258
-0.006951
-0.006669
-0.006389
-0.006084
-0.005729
-0.005305
-0.004800
-0.004203
-0.003513
-0.002735
-0.001879
-0.000965
-0.000019
-0.008036
-0.008036
-0.008051
-0.008070
-0.008093
-0.008119
-0.008148
-0.008179
-0.008212
-0.008244
-0.008275
-0.008301
-0.008319
-0.008326
-0.008318
-0.008290
-0.008236
-0.008148
-0.008020
-0.007844
-0.007618
-0.007348
-0.007050
-0.006746
-0.006439
-0.006121
-0.005777
-0.005393
-0.004953
-0.004448
-0.003870
-0.003217
-0.002492
-0.001706
-0.000873
-0.000015
-0.007963
-0.007963
-0.007974
-0.007988
-0.008005
-0.008024
-0.008043
-0.008063
-0.008081
-0.008098
-0.008110
-0.008116
-0.008113
-0.008098
-0.008067
-0.008016
-0.007941
-0.007836
-0.007697
-0.007521
-0.007306
-0.007057
-0.006779
-0.006482
-0.006169
-0.005835
-0.005474
-0.005076
-0.004632
-0.004133
-0.003576
-0.002958
-0.002282
-0.001557
-0.000796
-0.000013
-0.007866
-0.007866
-0.007875
-0.007885
-0.007897
-0.007908
-0.007918
-0.007927
-0.007934
-0.007936
-0.007932
-0.007921
-0.007900
-0.007866
-0.007816
-0.007747
-0.007656
-0.007538
-0.007391
-0.007213
-0.007004
-0.006764
-0.006496
-0.006205
-0.005891
-0.005553
-0.005186
-0.004785
-0.004343
-0.003856
-0.003319
-0.002734
-0.002102
-0.001431
-0.000730
-0.000012
-0.007761
-0.007761
-0.007768
-0.007775
-0.007781
-0.007786
-0.007789
-0.007788
-0.007783
-0.007773
-0.007756
-0.007730
-0.007694
-0.007644
-0.007579
-0.007496
-0.007392
-0.007264
-0.007111
-0.006930
-0.006722
-0.006486
-0.006224
-0.005937
-0.005625
-0.005287
-0.004920
-0.004521
-0.004086
-0.003612
-0.003097
-0.002542
-0.001948
-0.001323
-0.000674
-0.000011
-0.007654
-0.007654
-0.007659
-0.007664
-0.007666
-0.007665
-0.007660
-0.007652
-0.007638
-0.007617
-0.007589
-0.007551
-0.007501
-0.007439
-0.007361
-0.007267
-0.007152
-0.007016
-0.006857
-0.006674
-0.006465
-0.006231
-0.005971
-0.005687
-0.005378
-0.005042
-0.004679
-0.004285
-0.003859
-0.003399
-0.002905
-0.002376
-0.001817
-0.001231
-0.000627
-0.000011
-0.007547
-0.007547
-0.007552
-0.007554
-0.007553
-0.007547
-0.007537
-0.007521
-0.007499
-0.007470
-0.007431
-0.007383
-0.007324
-0.007251
-0.007163
-0.007058
-0.006936
-0.006793
-0.006629
-0.006442
-0.006232
-0.005998
-0.005741
-0.005459
-0.005152
-0.004820
-0.004461
-0.004075
-0.003659
-0.003214
-0.002738
-0.002235
-0.001705
-0.001153
-0.000586
-0.000010
-0.007444
-0.007444
-0.007448
-0.007449
-0.007444
-0.007435
-0.007420
-0.007398
-0.007369
-0.007332
-0.007286
-0.007229
-0.007161
-0.007079
-0.006983
-0.006871
-0.006741
-0.006592
-0.006424
-0.006234
-0.006023
-0.005789
-0.005532
-0.005253
-0.004949
-0.004621
-0.004268
-0.003889
-0.003484
-0.003052
-0.002594
-0.002113
-0.001609
-0.001087
-0.000552
-0.000010
-0.007346
-0.007346
-0.007350
-0.007349
-0.007342
-0.007329
-0.007310
-0.007283
-0.007249
-0.007206
-0.007153
-0.007089
-0.007013
-0.006924
-0.006821
-0.006702
-0.006567
-0.006413
-0.006241
-0.006049
-0.005836
-0.005602
-0.005346
-0.005068
-0.004767
-0.004443
-0.004096
-0.003725
-0.003330
-0.002911
-0.002470
-0.002008
-0.001526
-0.001030
-0.000523
-0.000009
-0.007254
-0.007254
-0.007257
-0.007255
-0.007246
-0.007231
-0.007208
-0.007178
-0.007138
-0.007090
-0.007031
-0.006962
-0.006880
-0.006785
-0.006676
-0.006552
-0.006412
-0.006254
-0.006079
-0.005884
-0.005670
-0.005435
-0.005180
-0.004904
-0.004606
-0.004287
-0.003945
-0.003582
-0.003196
-0.002790
-0.002363
-0.001918
-0.001456
-0.000982
-0.000498
-0.000009
-0.007169
-0.007169
-0.007171
-0.007168
-0.007158
-0.007141
-0.007115
-0.007081
-0.007038
-0.006985
-0.006922
-0.006847
-0.006761
-0.006661
-0.006547
-0.006419
-0.006275
-0.006114
-0.005935
-0.005739
-0.005524
-0.005289
-0.005035
-0.004760
-0.004465
-0.004150
-0.003814
-0.003457
-0.003081
-0.002685
-0.002271
-0.001841
-0.001396
-0.000940
-0.000476
-0.000008
-0.007090
-0.007090
-0.007092
-0.007088
-0.007077
-0.007058
-0.007030
-0.006993
-0.006947
-0.006891
-0.006824
-0.006745
-0.006655
-0.006551
-0.006433
-0.006301
-0.006154
-0.005990
-0.005810
-0.005612
-0.005396
-0.005161
-0.004907
-0.004635
-0.004342
-0.004031
-0.003700
-0.003349
-0.002981
-0.002595
-0.002192
-0.001775
-0.001345
-0.000905
-0.000458
-0.000008
-0.007015
-0.007015
-0.007017
-0.007012
-0.007000
-0.006980
-0.006950
-0.006912
-0.006863
-0.006804
-0.006734
-0.006652
-0.006559
-0.006452
-0.006331
-0.006196
-0.006046
-0.005881
-0.005699
-0.005500
-0.005283
-0.005049
-0.004796
-0.004525
-0.004235
-0.003927
-0.003601
-0.003257
-0.002895
-0.002518
-0.002125
-0.001719
-0.001302
-0.000876
-0.000443
-0.000007
-0.006936
-0.006936
-0.006937
-0.006933
-0.006920
-0.006899
-0.006868
-0.006828
-0.006777
-0.006716
-0.006644
-0.006560
-0.006464
-0.006355
-0.006233
-0.006096
-0.005945
-0.005778
-0.005595
-0.005395
-0.005179
-0.004945
-0.004694
-0.004425
-0.004138
-0.003834
-0.003512
-0.003174