<VTKFile type="StructuredGrid" version="0.1" byte_order="LittleEndian">
<StructuredGrid WholeExtent="1 71 1 81 0 0">
<Piece Extent="1 36 21 41 0 0">
<PointData></PointData>
<CellData></CellData>
<Points>
<DataArray NumberOfComponents="3" format="ascii" type ="Float32" Name="mesh">
0.000000 0.875000 0.0
0.042857 0.875000 0.0
0.085714 0.875000 0.0
0.128571 0.875000 0.0
0.171429 0.875000 0.0
0.214286 0.875000 0.0
0.257143 0.875000 0.0
0.300000 0.875000 0.0
0.342857 0.875000 0.0
0.385714 0.875000 0.0
0.428571 0.875000 0.0
0.471429 0.875000 0.0
0.514286 0.875000 0.0
0.557143 0.875000 0.0
0.600000 0.875000 0.0
0.642857 0.875000 0.0
0.685714 0.875000 0.0
0.728571 0.875000 0.0
0.771429 0.875000 0.0
0.814286 0.875000 0.0
0.857143 0.875000 0.0
0.900000 0.875000 0.0
0.942857 0.875000 0.0
0.985714 0.875000 0.0
1.028571 0.875000 0.0
1.071429 0.875000 0.0
1.114286 0.875000 0.0
1.157143 0.875000 0.0
1.200000 0.875000 0.0
1.242857 0.875000 0.0
1.285714 0.875000 0.0
1.328571 0.875000 0.0
1.371429 0.875000 0.0
1.414286 0.875000 0.0
1.457143 0.875000 0.0
1.500000 0.875000 0.0
0.000000 0.918750 0.0
0.042857 0.918750 0.0
0.085714 0.918750 0.0
0.128571 0.918750 0.0
0.171429 0.918750 0.0
0.214286 0.918750 0.0
0.257143 0.918750 0.0
0.300000 0.918750 0.0
0.342857 0.918750 0.0
0.385714 0.918750 0.0
0.428571 0.918750 0.0
0.471429 0.918750 0.0
0.514286 0.918750 0.0
0.557143 0.918750 0.0
0.600000 0.918750 0.0
0.642857 0.918750 0.0
0.685714 0.918750 0.0
0.728571 0.918750 0.0
0.771429 0.918750 0.0
0.814286 0.918750 0.0
0.857143 0.918750 0.0
0.900000 0.918750 0.0
0.942857 0.918750 0.0
0.985714 0.918750 0.0
1.028571 0.918750 0.0
1.071429 0.918750 0.0
1.114286 0.918750 0.0
1.157143 0.918750 0.0
1.200000 0.918750 0.0
1.242857 0.918750 0.0
1.285714 0.918750 0.0
1.328571 0.918750 0.0
1.371429 0.918750 0.0
1.414286 0.918750 0.0
1.457143 0.918750 0.0
1.500000 0.918750 0.0
0.000000 0.962500 0.0
0.042857 0.962500 0.0
0.085714 0.962500 0.0
0.128571 0.962500 0.0
0.171429 0.962500 0.0
0.214286 0.962500 0.0
0.257143 0.962500 0.0
0.300000 0.962500 0.0
0.342857 0.962500 0.0
0.385714 0.962500 0.0
0.428571 0.962500 0.0
0.471429 0.962500 0.0
0.514286 0.962500 0.0
0.557143 0.962500 0.0
0.600000 0.962500 0.0
0.642857 0.962500 0.0
0.685714 0.962500 0.0
0.728571 0.962500 0.0
0.771429 0.962500 0.0
0.814286 0.962500 0.0
0.857143 0.962500 0.0
0.900000 0.962500 0.0
0.942857 0.962500 0.0
0.985714 0.962500 0.0
1.028571 0.962500 0.0
1.071429 0.962500 0.0
1.114286 0.962500 0.0
1.157143 0.962500 0.0
1.200000 0.962500 0.0
1.242857 0.962500 0.0
1.285714 0.962500 0.0
1.328571 0.962500 0.0
1.371429 0.962500 0.0
1.414286 0.962500 0.0
1.457143 0.962500 0.0
1.500000 0.962500 0.0
0.000000 1.006250 0.0
0.042857 1.006250 0.0
0.085714 1.006250 0.0
0.128571 1.006250 0.0
0.171429 1.006250 0.0
0.214286 1.006250 0.0
0.257143 1.006250 0.0
0.300000 1.006250 0.0
0.342857 1.006250 0.0
0.385714 1.006250 0.0
0.428571 1.006250 0.0
0.471429 1.006250 0.0
0.514286 1.006250 0.0
0.557143 1.006250 0.0
0.600000 1.006250 0.0
0.642857 1.006250 0.0
0.685714 1.006250 0.0
0.728571 1.006250 0.0
0.771429 1.006250 0.0
0.814286 1.006250 0.0
0.857143 1.006250 0.0
0.900000 1.006250 0.0
0.942857 1.006250 0.0
0.985714 1.006250 0.0
1.028571 1.006250 0.0
1.071429 1.006250 0.0
1.114286 1.006250 0.0
1.157143 1.006250 0.0
1.200000 1.006250 0.0
1.242857 1.006250 0.0
1.285714 1.006250 0.0
1.328571 1.006250 0.0
1.371429 1.006250 0.0
1.414286 1.006250 0.0
1.457143 1.006250 0.0
1.500000 1.006250 0.0
0.000000 1.050000 0.0
0.042857 1.050000 0.0
0.085714 1.050000 0.0
0.128571 1.050000 0.0
0.171429 1.050000 0.0
0.214286 1.050000 0.0
0.257143 1.050000 0.0
0.300000 1.050000 0.0
0.342857 1.050000 0.0
0.385714 1.050000 0.0
0.428571 1.050000 0.0
0.471429 1.050000 0.0
0.514286 1.050000 0.0
0.557143 1.050000 0.0
0.600000 1.050000 0.0
0.642857 1.050000 0.0
0.685714 1.050000 0.0
0.728571 1.050000 0.0
0.771429 1.050000 0.0
0.814286 1.050000 0.0
0.857143 1.050000 0.0
0.900000 1.050000 0.0
0.942857 1.050000 0.0
0.985714 1.050000 0.0
1.028571 1.050000 0.0
1.071429 1.050000 0.0
1.114286 1.050000 0.0
1.157143 1.050000 0.0
1.200000 1.050000 0.0
1.242857 1.050000 0.0
1.285714 1.050000 0.0
1.328571 1.050000 0.0
1.371429 1.050000 0.0
1.414286 1.050000 0.0
1.457143 1.050000 0.0
1.500000 1.050000 0.0
0.000000 1.093750 0.0
0.042857 1.093750 0.0
0.085714 1.093750 0.0
0.128571 1.093750 0.0
0.171429 1.093750 0.0
0.214286 1.093750 0.0
0.257143 1.093750 0.0
0.300000 1.093750 0.0
0.342857 1.093750 0.0
0.385714 1.093750 0.0
0.428571 1.093750 0.0
0.471429 1.093750 0.0
0.514286 1.093750 0.0
0.557143 1.093750 0.0
0.600000 1.093750 0.0
0.642857 1.093750 0.0
0.685714 1.093750 0.0
0.728571 1.093750 0.0
0.771429 1.093750 0.0
0.814286 1.093750 0.0
0.857143 1.093750 0.0
0.900000 1.093750 0.0
0.942857 1.093750 0.0
0.985714 1.093750 0.0
1.028571 1.093750 0.0
1.071429 1.093750 0.0
1.114286 1.093750 0.0
1.157143 1.093750 0.0
1.200000 1.093750 0.0
1.242857 1.093750 0.0
1.285714 1.093750 0.0
1.328571 1.093750 0.0
1.371429 1.093750 0.0
1.414286 1.093750 0.0
1.457143 1.093750 0.0
1.500000 1.093750 0.0
0.000000 1.137500 0.0
0.042857 1.137500 0.0
0.085714 1.137500 0.0
0.128571 1.137500 0.0
0.171429 1.137500 0.0
0.214286 1.137500 0.0
0.257143 1.137500 0.0
0.300000 1.137500 0.0
0.342857 1.137500 0.0
0.385714 1.137500 0.0
0.428571 1.137500 0.0
0.471429 1.137500 0.0
0.514286 1.137500 0.0
0.557143 1.137500 0.0
0.600000 1.137500 0.0
0.642857 1.137500 0.0
0.685714 1.137500 0.0
0.728571 1.137500 0.0
0.771429 1.137500 0.0
0.814286 1.137500 0.0
0.857143 1.137500 0.0
0.900000 1.137500 0.0
0.942857 1.137500 0.0
0.985714 1.137500 0.0
1.028571 1.137500 0.0
1.071429 1.137500 0.0
1.114286 1.137500 0.0
1.157143 1.137500 0.0
1.200000 1.137500 0.0
1.242857 1.137500 0.0
1.285714 1.137500 0.0
1.328571 1.137500 0.0
1.371429 1.137500 0.0
1.414286 1.137500 0.0
1.457143 1.137500 0.0
1.500000 1.137500 0.0
0.000000 1.181250 0.0
0.042857 1.181250 0.0
0.085714 1.181250 0.0
0.128571 1.181250 0.0
0.171429 1.181250 0.0
0.214286 1.181250 0.0
0.257143 1.181250 0.0
0.300000 1.181250 0.0
0.342857 1.181250 0.0
0.385714 1.181250 0.0
0.428571 1.181250 0.0
0.471429 1.181250 0.0
0.514286 1.181250 0.0
0.557143 1.181250 0.0
0.600000 1.181250 0.0
0.642857 1.181250 0.0
0.685714 1.181250 0.0
0.728571 1.181250 0.0
0.771429 1.181250 0.0
0.814286 1.181250 0.0
0.857143 1.181250 0.0
0.900000 1.181250 0.0
0.942857 1.181250 0.0
0.985714 1.181250 0.0
1.028571 1.181250 0.0
1.071429 1.181250 0.0
1.114286 1.181250 0.0
1.157143 1.181250 0.0
1.200000 1.181250 0.0
1.242857 1.181250 0.0
1.285714 1.181250 0.0
1.328571 1.181250 0.0
1.371429 1.181250 0.0
1.414286 1.181250 0.0
1.457143 1.181250 0.0
1.500000 1.181250 0.0
0.000000 1.225000 0.0
0.042857 1.225000 0.0
0.085714 1.225000 0.0
0.128571 1.225000 0.0
0.171429 1.225000 0.0
0.214286 1.225000 0.0
0.257143 1.225000 0.0
0.300000 1.225000 0.0
0.342857 1.225000 0.0
0.385714 1.225000 0.0
0.428571 1.225000 0.0
0.471429 1.225000 0.0
0.514286 1.225000 0.0
0.557143 1.225000 0.0
0.600000 1.225000 0.0
0.642857 1.225000 0.0
0.685714 1.225000 0.0
0.728571 1.225000 0.0
0.771429 1.225000 0.0
0.814286 1.225000 0.0
0.857143 1.225000 0.0
0.900000 1.225000 0.0
0.942857 1.225000 0.0
0.985714 1.225000 0.0
1.028571 1.225000 0.0
1.071429 1.225000 0.0
1.114286 1.225000 0.0
1.157143 1.225000 0.0
1.200000 1.225000 0.0
1.242857 1.225000 0.0
1.285714 1.225000 0.0
1.328571 1.225000 0.0
1.371429 1.225000 0.0
1.414286 1.225000 0.0
1.457143 1.225000 0.0
1.500000 1.225000 0.0
0.000000 1.268750 0.0
0.042857 1.268750 0.0
0.085714 1.268750 0.0
0.128571 1.268750 0.0
0.171429 1.268750 0.0
0.214286 1.268750 0.0
0.257143 1.268750 0.0
0.300000 1.268750 0.0
0.342857 1.268750 0.0
0.385714 1.268750 0.0
0.428571 1.268750 0.0
0.471429 1.268750 0.0
0.514286 1.268750 0.0
0.557143 1.268750 0.0
0.600000 1.268750 0.0
0.642857 1.268750 0.0
0.685714 1.268750 0.0
0.728571 1.268750 0.0
0.771429 1.268750 0.0
0.814286 1.268750 0.0
0.857143 1.268750 0.0
0.900000 1.268750 0.0
0.942857 1.268750 0.0
0.985714 1.268750 0.0
1.028571 1.268750 0.0
1.071429 1.268750 0.0
1.114286 1.268750 0.0
1.157143 1.268750 0.0
1.200000 1.268750 0.0
1.242857 1.268750 0.0
1.285714 1.268750 0.0
1.328571 1.268750 0.0
1.371429 1.268750 0.0
1.414286 1.268750 0.0
1.457143 1.268750 0.0
1.500000 1.268750 0.0
0.000000 1.312500 0.0
0.042857 1.312500 0.0
0.085714 1.312500 0.0
0.128571 1.312500 0.0
0.171429 1.312500 0.0
0.214286 1.312500 0.0
0.257143 1.312500 0.0
0.300000 1.312500 0.0
0.342857 1.312500 0.0
0.385714 1.312500 0.0
0.428571 1.312500 0.0
0.471429 1.312500 0.0
0.514286 1.312500 0.0
0.557143 1.312500 0.0
0.600000 1.312500 0.0
0.642857 1.312500 0.0
0.685714 1.312500 0.0
0.728571 1.312500 0.0
0.771429 1.312500 0.0
0.814286 1.312500 0.0
0.857143 1.312500 0.0
0.900000 1.312500 0.0
0.942857 1.312500 0.0
0.985714 1.312500 0.0
1.028571 1.312500 0.0
1.071429 1.312500 0.0
1.114286 1.312500 0.0
1.157143 1.312500 0.0
1.200000 1.312500 0.0
1.242857 1.312500 0.0
1.285714 1.312500 0.0
1.328571 1.312500 0.0
1.371429 1.312500 0.0
1.414286 1.312500 0.0
1.457143 1.312500 0.0
1.500000 1.312500 0.0
0.000000 1.356250 0.0
0.042857 1.356250 0.0
0.085714 1.356250 0.0
0.128571 1.356250 0.0
0.171429 1.356250 0.0
0.214286 1.356250 0.0
0.257143 1.356250 0.0
0.300000 1.356250 0.0
0.342857 1.356250 0.0
0.385714 1.356250 0.0
0.428571 1.356250 0.0
0.471429 1.356250 0.0
0.514286 1.356250 0.0
0.557143 1.356250 0.0
0.600000 1.356250 0.0
0.642857 1.356250 0.0
0.685714 1.356250 0.0
0.728571 1.356250 0.0
0.771429 1.356250 0.0
0.814286 1.356250 0.0
0.857143 1.356250 0.0
0.900000 1.356250 0.0
0.942857 1.356250 0.0
0.985714 1.356250 0.0
1.028571 1.356250 0.0
1.071429 1.356250 0.0
1.114286 1.356250 0.0
1.157143 1.356250 0.0
1.200000 1.356250 0.0
1.242857 1.356250 0.0
1.285714 1.356250 0.0
1.328571 1.356250 0.0
1.371429 1.356250 0.0
1.414286 1.356250 0.0
1.457143 1.356250 0.0
1.500000 1.356250 0.0
0.000000 1.400000 0.0
0.042857 1.400000 0.0
0.085714 1.400000 0.0
0.128571 1.400000 0.0
0.171429 1.400000 0.0
0.214286 1.400000 0.0
0.257143 1.400000 0.0
0.300000 1.400000 0.0
0.342857 1.400000 0.0
0.385714 1.400000 0.0
0.428571 1.400000 0.0
0.471429 1.400000 0.0
0.514286 1.400000 0.0
0.557143 1.400000 0.0
0.600000 1.400000 0.0
0.642857 1.400000 0.0
0.685714 1.400000 0.0
0.728571 1.400000 0.0
0.771429 1.400000 0.0
0.814286 1.400000 0.0
0.857143 1.400000 0.0
0.900000 1.400000 0.0
0.942857 1.400000 0.0
0.985714 1.400000 0.0
1.028571 1.400000 0.0
1.071429 1.400000 0.0
1.114286 1.400000 0.0
1.157143 1.400000 0.0
1.200000 1.400000 0.0
1.242857 1.400000 0.0
1.285714 1.400000 0.0
1.328571 1.400000 0.0
1.371429 1.400000 0.0
1.414286 1.400000 0.0
1.457143 1.400000 0.0
1.500000 1.400000 0.0
0.000000 1.443750 0.0
0.042857 1.443750 0.0
0.085714 1.443750 0.0
0.128571 1.443750 0.0
0.171429 1.443750 0.0
0.214286 1.443750 0.0
0.257143 1.443750 0.0
0.300000 1.443750 0.0
0.342857 1.443750 0.0
0.385714 1.443750 0.0
0.428571 1.443750 0.0
0.471429 1.443750 0.0
0.514286 1.443750 0.0
0.557143 1.443750 0.0
0.600000 1.443750 0.0
0.642857 1.443750 0.0
0.685714 1.443750 0.0
0.728571 1.443750 0.0
0.771429 1.443750 0.0
0.814286 1.443750 0.0
0.857143 1.443750 0.0
0.900000 1.443750 0.0
0.942857 1.443750 0.0
0.985714 1.443750 0.0
1.028571 1.443750 0.0
1.071429 1.443750 0.0
1.114286 1.443750 0.0
1.157143 1.443750 0.0
1.200000 1.443750 0.0
1.242857 1.443750 0.0
1.285714 1.443750 0.0
1.328571 1.443750 0.0
1.371429 1.443750 0.0
1.414286 1.443750 0.0
1.457143 1.443750 0.0
1.500000 1.443750 0.0
0.000000 1.487500 0.0
0.042857 1.487500 0.0
0.085714 1.487500 0.0
0.128571 1.487500 0.0
0.171429 1.487500 0.0
0.214286 1.487500 0.0
0.257143 1.487500 0.0
0.300000 1.487500 0.0
0.342857 1.487500 0.0
0.385714 1.487500 0.0
0.428571 1.487500 0.0
0.471429 1.487500 0.0
0.514286 1.487500 0.0
0.557143 1.487500 0.0
0.600000 1.487500 0.0
0.642857 1.487500 0.0
0.685714 1.487500 0.0
0.728571 1.487500 0.0
0.771429 1.487500 0.0
0.814286 1.487500 0.0
0.857143 1.487500 0.0
0.900000 1.487500 0.0
0.942857 1.487500 0.0
0.985714 1.487500 0.0
1.028571 1.487500 0.0
1.071429 1.487500 0.0
1.114286 1.487500 0.0
1.157143 1.487500 0.0
1.200000 1.487500 0.0
1.242857 1.487500 0.0
1.285714 1.487500 0.0
1.328571 1.487500 0.0
1.371429 1.487500 0.0
1.414286 1.487500 0.0
1.457143 1.487500 0.0
1.500000 1.487500 0.0
0.000000 1.531250 0.0
0.042857 1.531250 0.0
0.085714 1.531250 0.0
0.128571 1.531250 0.0
0.171429 1.531250 0.0
0.214286 1.531250 0.0
0.257143 1.531250 0.0
0.300000 1.531250 0.0
0.342857 1.531250 0.0
0.385714 1.531250 0.0
0.428571 1.531250 0.0
0.471429 1.531250 0.0
0.514286 1.531250 0.0
0.557143 1.531250 0.0
0.600000 1.531250 0.0
0.642857 1.531250 0.0
0.685714 1.531250 0.0
0.728571 1.531250 0.0
0.771429 1.531250 0.0
0.814286 1.531250 0.0
0.857143 1.531250 0.0
0.900000 1.531250 0.0
0.942857 1.531250 0.0
0.985714 1.531250 0.0
1.028571 1.531250 0.0
1.071429 1.531250 0.0
1.114286 1.531250 0.0
1.157143 1.531250 0.0
1.200000 1.531250 0.0
1.242857 1.531250 0.0
1.285714 1.531250 0.0
1.328571 1.531250 0.0
1.371429 1.531250 0.0
1.414286 1.531250 0.0
1.457143 1.531250 0.0
1.500000 1.531250 0.0
0.000000 1.575000 0.0
0.042857 1.575000 0.0
0.085714 1.575000 0.0
0.128571 1.575000 0.0
0.171429 1.575000 0.0
0.214286 1.575000 0.0
0.257143 1.575000 0.0
0.300000 1.575000 0.0
0.342857 1.575000 0.0
0.385714 1.575000 0.0
0.428571 1.575000 0.0
0.471429 1.575000 0.0
0.514286 1.575000 0.0
0.557143 1.575000 0.0
0.600000 1.575000 0.0
0.642857 1.575000 0.0
0.685714 1.575000 0.0
0.728571 1.575000 0.0
0.771429 1.575000 0.0
0.814286 1.575000 0.0
0.857143 1.575000 0.0
0.900000 1.575000 0.0
0.942857 1.575000 0.0
0.985714 1.575000 0.0
1.028571 1.575000 0.0
1.071429 1.575000 0.0
1.114286 1.575000 0.0
1.157143 1.575000 0.0
1.200000 1.575000 0.0
1.242857 1.575000 0.0
1.285714 1.575000 0.0
1.328571 1.575000 0.0
1.371429 1.575000 0.0
1.414286 1.575000 0.0
1.457143 1.575000 0.0
1.500000 1.575000 0.0
0.000000 1.618750 0.0
0.042857 1.618750 0.0
0.085714 1.618750 0.0
0.128571 1.618750 0.0
0.171429 1.618750 0.0
0.214286 1.618750 0.0
0.257143 1.618750 0.0
0.300000 1.618750 0.0
0.342857 1.618750 0.0
0.385714 1.618750 0.0
0.428571 1.618750 0.0
0.471429 1.618750 0.0
0.514286 1.618750 0.0
0.557143 1.618750 0.0
0.600000 1.618750 0.0
0.642857 1.618750 0.0
0.685714 1.618750 0.0
0.728571 1.618750 0.0
0.771429 1.618750 0.0
0.814286 1.618750 0.0
0.857143 1.618750 0.0
0.900000 1.618750 0.0
0.942857 1.618750 0.0
0.985714 1.618750 0.0
1.028571 1.618750 0.0
1.071429 1.618750 0.0
1.114286 1.618750 0.0
1.157143 1.618750 0.0
1.200000 1.618750 0.0
1.242857 1.618750 0.0
1.285714 1.618750 0.0
1.328571 1.618750 0.0
1.371429 1.618750 0.0
1.414286 1.618750 0.0
1.457143 1.618750 0.0
1.500000 1.618750 0.0
0.000000 1.662500 0.0
0.042857 1.662500 0.0
0.085714 1.662500 0.0
0.128571 1.662500 0.0
0.171429 1.662500 0.0
0.214286 1.662500 0.0
0.257143 1.662500 0.0
0.300000 1.662500 0.0
0.342857 1.662500 0.0
0.385714 1.662500 0.0
0.428571 1.662500 0.0
0.471429 1.662500 0.0
0.514286 1.662500 0.0
0.557143 1.662500 0.0
0.600000 1.662500 0.0
0.642857 1.662500 0.0
0.685714 1.662500 0.0
0.728571 1.662500 0.0
0.771429 1.662500 0.0
0.814286 1.662500 0.0
0.857143 1.662500 0.0
0.900000 1.662500 0.0
0.942857 1.662500 0.0
0.985714 1.662500 0.0
1.028571 1.662500 0.0
1.071429 1.662500 0.0
1.114286 1.662500 0.0
1.157143 1.662500 0.0
1.200000 1.662500 0.0
1.242857 1.662500 0.0
1.285714 1.662500 0.0
1.328571 1.662500 0.0
1.371429 1.662500 0.0
1.414286 1.662500 0.0
1.457143 1.662500 0.0
1.500000 1.662500 0.0
0.000000 1.706250 0.0
0.042857 1.706250 0.0
0.085714 1.706250 0.0
0.128571 1.706250 0.0
0.171429 1.706250 0.0
0.214286 1.706250 0.0
0.257143 1.706250 0.0
0.300000 1.706250 0.0
0.342857 1.706250 0.0
0.385714 1.706250 0.0
0.428571 1.706250 0.0
0.471429 1.706250 0.0
0.514286 1.706250 0.0
0.557143 1.706250 0.0
0.600000 1.706250 0.0
0.642857 1.706250 0.0
0.685714 1.706250 0.0
0.728571 1.706250 0.0
0.771429 1.706250 0.0
0.814286 1.706250 0.0
0.857143 1.706250 0.0
0.900000 1.706250 0.0
0.942857 1.706250 0.0
0.985714 1.706250 0.0
1.028571 1.706250 0.0
1.071429 1.706250 0.0
1.114286 1.706250 0.0
1.157143 1.706250 0.0
1.200000 1.706250 0.0
1.242857 1.706250 0.0
1.285714 1.706250 0.0
1.328571 1.706250 0.0
1.371429 1.706250 0.0
1.414286 1.706250 0.0
1.457143 1.706250 0.0
1.500000 1.706250 0.0
0.000000 1.750000 0.0
0.042857 1.750000 0.0
0.085714 1.750000 0.0
0.128571 1.750000 0.0
0.171429 1.750000 0.0
0.214286 1.750000 0.0
0.257143 1.750000 0.0
0.300000 1.750000 0.0
0.342857 1.750000 0.0
0.385714 1.750000 0.0
0.428571 1.750000 0.0
0.471429 1.750000 0.0
0.514286 1.750000 0.0
0.557143 1.750000 0.0
0.600000 1.750000 0.0
0.642857 1.750000 0.0
0.685714 1.750000 0.0
0.728571 1.750000 0.0
0.771429 1.750000 0.0
0.814286 1.750000 0.0
0.857143 1.750000 0.0
0.900000 1.750000 0.0
0.942857 1.750000 0.0
0.985714 1.750000 0.0
1.028571 1.750000 0.0
1.071429 1.750000 0.0
1.114286 1.750000 0.0
1.157143 1.750000 0.0
1.200000 1.750000 0.0
1.242857 1.750000 0.0
1.285714 1.750000 0.0
1.328571 1.750000 0.0
1.371429 1.750000 0.0
1.414286 1.750000 0.0
1.457143 1.750000 0.0
1.500000 1.750000 0.0
</DataArray></Points>
<PointData>
<DataArray NumberOfComponents="1" format="ascii" type ="Float32" Name="phi">
1.141796
1.127522
1.089329
1.051308
1.013602
0.976307
0.939341
0.902613
0.866127
0.829977
0.794307
0.759180
0.724559
0.690418
0.656800
0.623778
0.591461
0.559975
0.529326
0.499441
0.470354
0.442286
0.415541
0.390294
0.366684
0.344759
0.324448
0.305716
0.288599
0.273291
0.260122
0.249553
0.241695
0.235961
0.232296
0.231325
1.127661
1.108249
1.069507
1.031041
0.992965
0.955192
0.917618
0.880233
0.843134
0.806472
0.770284
0.734495
0.699069
0.664059
0.629604
0.595823
0.562785
0.530504
0.498932
0.468065
0.438029
0.409049
0.381261
0.354803
0.330010
0.307039
0.285792
0.266209
0.248285
0.232193
0.218221
0.206874
0.198515
0.192519
0.188657
0.187626
1.109579
1.089921
1.050740
1.011893
0.973353
0.934989
0.896782
0.858809
0.821231
0.784087
0.747273
0.710739
0.674530
0.638789
0.603644
0.569110
0.535187
0.501922
0.469366
0.437588
0.406724
0.376853
0.347973
0.320270
0.294153
0.269918
0.247597
0.227091
0.208323
0.191409
0.176595
0.164349
0.155373
0.149099
0.145021
0.143923
1.092612
1.072749
1.033172
0.993861
0.954740
0.915763
0.876975
0.838524
0.800481
0.762739
0.725224
0.687970
0.651113
0.614775
0.578932
0.543537
0.508640
0.474382
0.440884
0.408225
0.376469
0.345597
0.315631
0.286766
0.259284
0.233576
0.209987
0.188459
0.168777
0.150969
0.135265
0.121997
0.112282
0.105706
0.101390
0.100217
1.076901
1.056829
1.016790
0.976942
0.937253
0.897724
0.858434
0.819490
0.780852
0.742424
0.704219
0.666351
0.628944
0.591965
0.555337
0.519079
0.483313
0.448183
0.413747
0.380068
0.347241
0.315306
0.284318
0.254378
0.225598
0.198300
0.173134
0.150374
0.129689
0.110894
0.094263
0.079804
0.069159
0.062285
0.057724
0.056473
1.062366
1.042087
1.001607
0.961282
0.921105
0.881084
0.841273
0.801721
0.762403
0.723302
0.684478
0.646047
0.608013
0.570293
0.532882
0.495863
0.459360
0.423409
0.387995
0.353213
0.319226
0.286169
0.254123
0.223107
0.193147
0.164356
0.137323
0.112900
0.091092
0.071174
0.053573
0.038744
0.027730
0.020332
0.015401
0.013996
1.048920
1.028470
0.987632
0.946916
0.906316
0.865834
0.825498
0.785347
0.745406
0.705689
0.666244
0.627135
0.588349
0.549857
0.511714
0.474009
0.436771
0.399972
0.363630
0.327853
0.292756
0.258460
0.225157
0.192964
0.161876
0.131830
0.102956
0.076245
0.052969
0.032719
0.014655
-0.000651
-0.012372
-0.020893
-0.026564
-0.028256
1.036515
1.015920
0.974775
0.933720
0.892750
0.851870
0.811099
0.770472
0.730015
0.689732
0.649641
0.609791
0.570218
0.530949
0.492055
0.453587
0.415534
0.377892
0.340707
0.304044
0.267940
0.232444
0.197739
0.164090
0.131714
0.100584
0.070411
0.042246
0.017540
-0.003717
-0.022963
-0.040185
-0.053659
-0.063392
-0.069795
-0.071724
1.025103
1.004376
0.962957
0.921605
0.880320
0.839107
0.797989
0.756984
0.716096
0.675326
0.634684
0.594208
0.553941
0.513919
0.474197
0.434827
0.395851
0.357322
0.319275
0.281733
0.244705
0.208202
0.172257
0.137006
0.102843
0.070351
0.039736
0.011181
-0.015301
-0.039265
-0.060855
-0.080109
-0.095388
-0.106255
-0.113228
-0.115307
1.014657
0.993809
0.952140
0.910525
0.868966
0.827472
0.786060
0.744734
0.703489
0.662327
0.621260
0.580312
0.539503
0.498852
0.458384
0.418151
0.378223
0.338676
0.299580
0.261017
0.223019
0.185580
0.148671
0.112202
0.076154
0.042443
0.011557
-0.018433
-0.047495
-0.074275
-0.098214
-0.119291
-0.136462
-0.148819
-0.156579
-0.158857
1.005175
0.984215
0.942315
0.900462
0.858659
0.816916
0.775242
0.733632
0.692082
0.650599
0.609194
0.567880
0.526662
0.485544
0.444538
0.403670
0.362969
0.322484
0.282292
0.242503
0.203208
0.164518
0.126550
0.089261
0.052448
0.018241
-0.014100
-0.046735
-0.078294
-0.107726
-0.134247
-0.157488
-0.176760
-0.190961
-0.199823
-0.202377
0.996709
0.975639
0.933519
0.891440
0.849410
0.807434
0.765512
0.723641
0.681820
0.640057
0.598362
0.556743
0.515197
0.473724
0.432334
0.391034
0.349831
0.308736
0.267770
0.226971
0.186407
0.146210
0.106554
0.067504
0.031055
-0.002826
-0.037697
-0.073116
-0.107004
-0.138952
-0.168254
-0.194182
-0.215986
-0.232484
-0.242882
-0.245848
0.989419
0.968239
0.925890
0.883581
0.841322
0.799108
0.756938
0.714810
0.672725
0.630694
0.588727
0.546823
0.504980
0.463200
0.421493
0.379866
0.338316
0.296843
0.255449
0.214134
0.172899
0.131746
0.090701
0.049764
0.012518
-0.022407
-0.059344
-0.096474
-0.132497
-0.167047
-0.199403
-0.228589
-0.253584
-0.273035
-0.285592
-0.289220
0.983505
0.962254
0.919711
0.877165
0.834675
0.792216
0.749785
0.707386
0.665023
0.622709
0.580450
0.538242
0.496084
0.453981
0.411947
0.369990
0.328108
0.286304
0.244583
0.202950
0.161400
0.119916
0.078487
0.036878
-0.003797
-0.042408
-0.080118
-0.117766
-0.155086
-0.191656
-0.226808
-0.259544
-0.288506
-0.311893
-0.327608
-0.332361
0.977393
0.956940
0.915142
0.872454
0.829773
0.787105
0.744453
0.701818
0.659206
0.616623
0.574070
0.531546
0.489052
0.446596
0.404188
0.361835
0.319534
0.277291
0.235118
0.193027
0.151037
0.109160
0.067396
0.025914
-0.017380
-0.059814
-0.099021
-0.137668
-0.175902
-0.213682
-0.250740
-0.286448
-0.319501
-0.347755
-0.368129
-0.374868
0.959656
0.945830
0.911409
0.869426
0.826637
0.783841
0.741055
0.698277
0.655507
0.612744
0.569989
0.527242
0.484507
0.441788
0.399088
0.356406
0.313742
0.271096
0.228474
0.185887
0.143363
0.100924
0.058553
0.017638
-0.024511
-0.067964
-0.109716
-0.150855
-0.191470
-0.231484
-0.270747
-0.309025
-0.345646
-0.378957
-0.405517
-0.415522
0.923822
0.919700
0.901687
0.867163
0.825106
0.782260
0.739418
0.696579
0.653741
0.610905
0.568069
0.525236
0.482407
0.439583
0.396762
0.353946
0.311132
0.268320
0.225507
0.182698
0.139906
0.097138
0.054357
0.013814
-0.026043
-0.068202
-0.111052
-0.153843
-0.196453
-0.238691
-0.280475
-0.321728
-0.362232
-0.401114
-0.435641
-0.450585
0.880330
0.880232
0.876093
0.858580
0.824682
0.782832
0.740001
0.697186
0.654373
0.611563
0.568757
0.525955
0.483158
0.440365
0.397577
0.354796
0.312021
0.269254
0.226494
0.183743
0.141004
0.098281
0.055525
0.014684
-0.024731
-0.066166
-0.109036
-0.151859
-0.194666
-0.237462
-0.280270
-0.323026
-0.365535
-0.406745
-0.443509
-0.460193
0.836580
0.836616
0.836599
0.832973
0.816747
0.784055
0.742650
0.699921
0.657195
0.614477
0.571769
0.529071
0.486382
0.443704
0.401038
0.358387
0.315750
0.273130
0.230528
0.187946
0.145384
0.102842
0.060299
0.018710
-0.022499
-0.064835
-0.107668
-0.150429
-0.193065
-0.235396
-0.277192
-0.318127
-0.357543
-0.393628
-0.422925
-0.435840
0.792830
0.792867
0.792956
0.793002
0.790062
0.775621
0.744725
0.703977
0.661310
0.618704
0.576116
0.533543
0.490987
0.448447
0.405927
0.363430
0.320959
0.278513
0.236097
0.193715
0.151365
0.109053
0.066773
0.024743
-0.018924
-0.062678
-0.104554
-0.146119
-0.187114
-0.227266
-0.266224
-0.303343
-0.337300
-0.366033
-0.387410
-0.396517
0.760018
0.749118
0.749207
0.749326
0.749435
0.747337
0.735108
0.706507
0.666685
0.624151
0.581714
0.539305
0.496923
0.454569
0.412247
0.369967
0.327735
0.285555
0.243437
0.201394
0.159443
0.117613
0.075942
0.034480
-0.009764
-0.053635
-0.093885
-0.133282
-0.171663
-0.208926
-0.244654
-0.277850
-0.306920
-0.330361
-0.347280
-0.354427
</DataArray>
<DataArray NumberOfComponents="1" format="ascii" type ="Float32" Name="u">
0.000000
0.007285
0.007301
0.007336
0.007394
0.007478
0.007588
0.007727
0.007896
0.008096
0.008330
0.008599
0.008906
0.009252
0.009639
0.010068
0.010538
0.011045
0.011584
0.012142
0.012702
0.013237
0.013714
0.014094
0.014334
0.014394
0.014236
0.013832
0.013158
0.012199
0.010946
0.009397
0.007562
0.005462
0.003139
0.000659
0.007135
0.007135
0.007147
0.007180
0.007239
0.007325
0.007442
0.007589
0.007769
0.007985
0.008238
0.008530
0.008866
0.009248
0.009680
0.010164
0.010702
0.011292
0.011932
0.012611
0.013311
0.014006
0.014657
0.015219
0.015639
0.015868
0.015859
0.015574
0.014981
0.014054
0.012768
0.011107
0.009060
0.006637
0.003881
0.000875
0.006940
0.006940
0.006955
0.006990
0.007051
0.007142
0.007264
0.007420
0.007610
0.007839
0.008109
0.008423
0.008785
0.009201
0.009675
0.010211
0.010815
0.011489
0.012232
0.013037
0.013889
0.014759
0.015605
0.016371
0.016994
0.017411
0.017566
0.017409
0.016899
0.015997
0.014665
0.012867
0.010572
0.007778
0.004539
0.000974
0.006712
0.006712
0.006729
0.006767
0.006832
0.006927
0.007054
0.007216
0.007416
0.007656
0.007940
0.008273
0.008659
0.009104
0.009616
0.010202
0.010869
0.011623
0.012469
0.013404
0.014415
0.015474
0.016531
0.017519
0.018357
0.018964
0.019268
0.019208
0.018730
0.017783
0.016311
0.014282
0.011654
0.008425
0.004724
0.000743
0.006453
0.006453
0.006472
0.006512
0.006580
0.006678
0.006810
0.006978
0.007184
0.007433
0.007729
0.008077
0.008482
0.008953
0.009498
0.010127
0.010852
0.011682
0.012629
0.013694
0.014869
0.016125
0.017405
0.018620
0.019665
0.020431
0.020822
0.020758
0.020165
0.018979
0.017112
0.014626
0.011551
0.007871
0.003927
0.000061
0.006165
0.006165
0.006184
0.006226
0.006296
0.006397
0.006531
0.006703
0.006914
0.007169
0.007473
0.007831
0.008251
0.008742
0.009314
0.009980
0.010755
0.011655
0.012696
0.013888
0.015228
0.016685
0.018186
0.019617
0.020827
0.021669
0.022008
0.021725
0.020714
0.018900
0.016103
0.012709
0.009176
0.005522
0.002121
-0.000841
0.005847
0.005847
0.005867
0.005909
0.005980
0.006081
0.006217
0.006390
0.006603
0.006861
0.007169
0.007534
0.007963
0.008468
0.009059
0.009754
0.010570
0.011529
0.012656
0.013967
0.015465
0.017114
0.018820
0.020420
0.021705
0.022462
0.022493
0.021595
0.019642
0.016393
0.012420
0.008375
0.004957
0.002320
0.000353
-0.001324
0.005499
0.005499
0.005518
0.005561
0.005631
0.005732
0.005867
0.006039
0.006251
0.006508
0.006816
0.007182
0.007614
0.008125
0.008727
0.009440
0.010286
0.011292
0.012491
0.013907
0.015547
0.017363
0.019224
0.020903
0.022102
0.022511
0.021814
0.019681
0.016003
0.011322
0.007244
0.004081
0.001741
0.000369
-0.000449
-0.001179
0.005120
0.005120
0.005140
0.005182
0.005250
0.005349
0.005481
0.005649
0.005857
0.006109
0.006412
0.006773
0.007201
0.007709
0.008312
0.009031
0.009892
0.010929
0.012180
0.013677
0.015425
0.017357
0.019288
0.020900
0.021777
0.021460
0.019481
0.015449
0.010397
0.006253
0.003375
0.001596
0.000410
-0.000224
-0.000580
-0.000837
0.004713
0.004713
0.004732
0.004772
0.004838
0.004933
0.005060
0.005221
0.005420
0.005663
0.005955
0.006304
0.006720
0.007215
0.007807
0.008518
0.009377
0.010422
0.011695
0.013235
0.015037
0.017004
0.018877
0.020231
0.020513
0.019098
0.015170
0.009915
0.005637
0.003044
0.001378
0.000357
-0.000212
-0.000458
-0.000542
-0.000557
0.004278
0.004278
0.004295
0.004334
0.004396
0.004485
0.004604
0.004755
0.004942
0.005169
0.005444
0.005773
0.006167
0.006639
0.007206
0.007891
0.008724
0.009746
0.011002
0.012527
0.014305
0.016194
0.017856
0.018756
0.018199
0.015288
0.009866
0.005489
0.002834
0.001198
0.000244
-0.000275
-0.000493
-0.000525
-0.000461
-0.000354
0.003816
0.003816
0.003833
0.003868
0.003925
0.004006
0.004114
0.004251
0.004421
0.004628
0.004878
0.005180
0.005542
0.005977
0.006501
0.007138
0.007917
0.008875
0.010056
0.011489
0.013141
0.014830
0.016137
0.016427
0.014953
0.010392
0.005676
0.002843
0.001123
0.000131
-0.000367
-0.000569
-0.000586
-0.000502
-0.000366
-0.000208
0.003331
0.003331
0.003346
0.003377
0.003427
0.003499
0.003593
0.003712
0.003860
0.004041
0.004259
0.004523
0.004840
0.005223
0.005686
0.006249
0.006936
0.007781
0.008816
0.010060
0.011472
0.012857
0.013749
0.013392
0.011032
0.006005
0.002993
0.001137
0.000084
-0.000443
-0.000637
-0.000647
-0.000560
-0.000426
-0.000269
-0.000101
0.002825
0.002825
0.002838
0.002864
0.002907
0.002966
0.003043
0.003141
0.003262
0.003409
0.003587
0.003803
0.004062
0.004376
0.004755
0.005213
0.005769
0.006441
0.007247
0.008196
0.009255
0.010282
0.010865
0.010098
0.006656
0.002999
0.001125
0.000065
-0.000457
-0.000650
-0.000661
-0.000583
-0.000464
-0.000328
-0.000181
-0.000023
0.002301
0.002301
0.002312
0.002334
0.002367
0.002411
0.002469
0.002541
0.002630
0.002737
0.002867
0.003023
0.003212
0.003438
0.003709
0.004032
0.004411
0.004851
0.005347
0.005896
0.006492
0.007105
0.007513
0.006825
0.002812
0.000987
0.000070
-0.000377
-0.000554
-0.000585
-0.000540
-0.000458
-0.000356
-0.000240
-0.000112
0.000027
0.001765
0.001765
0.001774
0.001789
0.001812
0.001840
0.001876
0.001918
0.001970
0.002031
0.002104
0.002192
0.002295
0.002417
0.002558
0.002715
0.002881
0.003040
0.003167
0.003243
0.003288
0.003394
0.003610
0.003431
0.000707
0.000103
-0.000158
-0.000310
-0.000395
-0.000425
-0.000410
-0.000360
-0.000282
-0.000183
-0.000068
0.000060
0.001221
0.001221
0.001228
0.001237
0.001248
0.001259
0.001269
0.001279
0.001289
0.001299
0.001309
0.001318
0.001326
0.001329
0.001322
0.001293
0.001222
0.001077
0.000818
0.000418
-0.000090
-0.000523
-0.000543
-0.000016
-0.000035
0.000079
-0.000009
-0.000168
-0.000303
-0.000374
-0.000381
-0.000337
-0.000257
-0.000154
-0.000036
0.000090
0.000675
0.000675
0.000680
0.000683
0.000682
0.000674
0.000657
0.000632
0.000598
0.000552
0.000494
0.000419
0.000324
0.000200
0.000036
-0.000188
-0.000499
-0.000937
-0.001545
-0.002349
-0.003304
-0.004187
-0.004488
-0.003473
-0.000540
-0.000094
-0.000206
-0.000379
-0.000481
-0.000499
-0.000452
-0.000364
-0.000253
-0.000130
-0.000002
0.000128