<VTKFile type="StructuredGrid" version="0.1" byte_order="LittleEndian">
<StructuredGrid WholeExtent="1 71 1 81 0 0">
<Piece Extent="1 36 61 81 0 0">
<PointData></PointData>
<CellData></CellData>
<Points>
<DataArray NumberOfComponents="3" format="ascii" type ="Float32" Name="mesh">
0.000000 2.625000 0.0
0.042857 2.625000 0.0
0.085714 2.625000 0.0
0.128571 2.625000 0.0
0.171429 2.625000 0.0
0.214286 2.625000 0.0
0.257143 2.625000 0.0
0.300000 2.625000 0.0
0.342857 2.625000 0.0
0.385714 2.625000 0.0
0.428571 2.625000 0.0
0.471429 2.625000 0.0
0.514286 2.625000 0.0
0.557143 2.625000 0.0
0.600000 2.625000 0.0
0.642857 2.625000 0.0
0.685714 2.625000 0.0
0.728571 2.625000 0.0
0.771429 2.625000 0.0
0.814286 2.625000 0.0
0.857143 2.625000 0.0
0.900000 2.625000 0.0
0.942857 2.625000 0.0
0.985714 2.625000 0.0
1.028571 2.625000 0.0
1.071429 2.625000 0.0
1.114286 2.625000 0.0
1.157143 2.625000 0.0
1.200000 2.625000 0.0
1.242857 2.625000 0.0
1.285714 2.625000 0.0
1.328571 2.625000 0.0
1.371429 2.625000 0.0
1.414286 2.625000 0.0
1.457143 2.625000 0.0
1.500000 2.625000 0.0
0.000000 2.668750 0.0
0.042857 2.668750 0.0
0.085714 2.668750 0.0
0.128571 2.668750 0.0
0.171429 2.668750 0.0
0.214286 2.668750 0.0
0.257143 2.668750 0.0
0.300000 2.668750 0.0
0.342857 2.668750 0.0
0.385714 2.668750 0.0
0.428571 2.668750 0.0
0.471429 2.668750 0.0
0.514286 2.668750 0.0
0.557143 2.668750 0.0
0.600000 2.668750 0.0
0.642857 2.668750 0.0
0.685714 2.668750 0.0
0.728571 2.668750 0.0
0.771429 2.668750 0.0
0.814286 2.668750 0.0
0.857143 2.668750 0.0
0.900000 2.668750 0.0
0.942857 2.668750 0.0
0.985714 2.668750 0.0
1.028571 2.668750 0.0
1.071429 2.668750 0.0
1.114286 2.668750 0.0
1.157143 2.668750 0.0
1.200000 2.668750 0.0
1.242857 2.668750 0.0
1.285714 2.668750 0.0
1.328571 2.668750 0.0
1.371429 2.668750 0.0
1.414286 2.668750 0.0
1.457143 2.668750 0.0
1.500000 2.668750 0.0
0.000000 2.712500 0.0
0.042857 2.712500 0.0
0.085714 2.712500 0.0
0.128571 2.712500 0.0
0.171429 2.712500 0.0
0.214286 2.712500 0.0
0.257143 2.712500 0.0
0.300000 2.712500 0.0
0.342857 2.712500 0.0
0.385714 2.712500 0.0
0.428571 2.712500 0.0
0.471429 2.712500 0.0
0.514286 2.712500 0.0
0.557143 2.712500 0.0
0.600000 2.712500 0.0
0.642857 2.712500 0.0
0.685714 2.712500 0.0
0.728571 2.712500 0.0
0.771429 2.712500 0.0
0.814286 2.712500 0.0
0.857143 2.712500 0.0
0.900000 2.712500 0.0
0.942857 2.712500 0.0
0.985714 2.712500 0.0
1.028571 2.712500 0.0
1.071429 2.712500 0.0
1.114286 2.712500 0.0
1.157143 2.712500 0.0
1.200000 2.712500 0.0
1.242857 2.712500 0.0
1.285714 2.712500 0.0
1.328571 2.712500 0.0
1.371429 2.712500 0.0
1.414286 2.712500 0.0
1.457143 2.712500 0.0
1.500000 2.712500 0.0
0.000000 2.756250 0.0
0.042857 2.756250 0.0
0.085714 2.756250 0.0
0.128571 2.756250 0.0
0.171429 2.756250 0.0
0.214286 2.756250 0.0
0.257143 2.756250 0.0
0.300000 2.756250 0.0
0.342857 2.756250 0.0
0.385714 2.756250 0.0
0.428571 2.756250 0.0
0.471429 2.756250 0.0
0.514286 2.756250 0.0
0.557143 2.756250 0.0
0.600000 2.756250 0.0
0.642857 2.756250 0.0
0.685714 2.756250 0.0
0.728571 2.756250 0.0
0.771429 2.756250 0.0
0.814286 2.756250 0.0
0.857143 2.756250 0.0
0.900000 2.756250 0.0
0.942857 2.756250 0.0
0.985714 2.756250 0.0
1.028571 2.756250 0.0
1.071429 2.756250 0.0
1.114286 2.756250 0.0
1.157143 2.756250 0.0
1.200000 2.756250 0.0
1.242857 2.756250 0.0
1.285714 2.756250 0.0
1.328571 2.756250 0.0
1.371429 2.756250 0.0
1.414286 2.756250 0.0
1.457143 2.756250 0.0
1.500000 2.756250 0.0
0.000000 2.800000 0.0
0.042857 2.800000 0.0
0.085714 2.800000 0.0
0.128571 2.800000 0.0
0.171429 2.800000 0.0
0.214286 2.800000 0.0
0.257143 2.800000 0.0
0.300000 2.800000 0.0
0.342857 2.800000 0.0
0.385714 2.800000 0.0
0.428571 2.800000 0.0
0.471429 2.800000 0.0
0.514286 2.800000 0.0
0.557143 2.800000 0.0
0.600000 2.800000 0.0
0.642857 2.800000 0.0
0.685714 2.800000 0.0
0.728571 2.800000 0.0
0.771429 2.800000 0.0
0.814286 2.800000 0.0
0.857143 2.800000 0.0
0.900000 2.800000 0.0
0.942857 2.800000 0.0
0.985714 2.800000 0.0
1.028571 2.800000 0.0
1.071429 2.800000 0.0
1.114286 2.800000 0.0
1.157143 2.800000 0.0
1.200000 2.800000 0.0
1.242857 2.800000 0.0
1.285714 2.800000 0.0
1.328571 2.800000 0.0
1.371429 2.800000 0.0
1.414286 2.800000 0.0
1.457143 2.800000 0.0
1.500000 2.800000 0.0
0.000000 2.843750 0.0
0.042857 2.843750 0.0
0.085714 2.843750 0.0
0.128571 2.843750 0.0
0.171429 2.843750 0.0
0.214286 2.843750 0.0
0.257143 2.843750 0.0
0.300000 2.843750 0.0
0.342857 2.843750 0.0
0.385714 2.843750 0.0
0.428571 2.843750 0.0
0.471429 2.843750 0.0
0.514286 2.843750 0.0
0.557143 2.843750 0.0
0.600000 2.843750 0.0
0.642857 2.843750 0.0
0.685714 2.843750 0.0
0.728571 2.843750 0.0
0.771429 2.843750 0.0
0.814286 2.843750 0.0
0.857143 2.843750 0.0
0.900000 2.843750 0.0
0.942857 2.843750 0.0
0.985714 2.843750 0.0
1.028571 2.843750 0.0
1.071429 2.843750 0.0
1.114286 2.843750 0.0
1.157143 2.843750 0.0
1.200000 2.843750 0.0
1.242857 2.843750 0.0
1.285714 2.843750 0.0
1.328571 2.843750 0.0
1.371429 2.843750 0.0
1.414286 2.843750 0.0
1.457143 2.843750 0.0
1.500000 2.843750 0.0
0.000000 2.887500 0.0
0.042857 2.887500 0.0
0.085714 2.887500 0.0
0.128571 2.887500 0.0
0.171429 2.887500 0.0
0.214286 2.887500 0.0
0.257143 2.887500 0.0
0.300000 2.887500 0.0
0.342857 2.887500 0.0
0.385714 2.887500 0.0
0.428571 2.887500 0.0
0.471429 2.887500 0.0
0.514286 2.887500 0.0
0.557143 2.887500 0.0
0.600000 2.887500 0.0
0.642857 2.887500 0.0
0.685714 2.887500 0.0
0.728571 2.887500 0.0
0.771429 2.887500 0.0
0.814286 2.887500 0.0
0.857143 2.887500 0.0
0.900000 2.887500 0.0
0.942857 2.887500 0.0
0.985714 2.887500 0.0
1.028571 2.887500 0.0
1.071429 2.887500 0.0
1.114286 2.887500 0.0
1.157143 2.887500 0.0
1.200000 2.887500 0.0
1.242857 2.887500 0.0
1.285714 2.887500 0.0
1.328571 2.887500 0.0
1.371429 2.887500 0.0
1.414286 2.887500 0.0
1.457143 2.887500 0.0
1.500000 2.887500 0.0
0.000000 2.931250 0.0
0.042857 2.931250 0.0
0.085714 2.931250 0.0
0.128571 2.931250 0.0
0.171429 2.931250 0.0
0.214286 2.931250 0.0
0.257143 2.931250 0.0
0.300000 2.931250 0.0
0.342857 2.931250 0.0
0.385714 2.931250 0.0
0.428571 2.931250 0.0
0.471429 2.931250 0.0
0.514286 2.931250 0.0
0.557143 2.931250 0.0
0.600000 2.931250 0.0
0.642857 2.931250 0.0
0.685714 2.931250 0.0
0.728571 2.931250 0.0
0.771429 2.931250 0.0
0.814286 2.931250 0.0
0.857143 2.931250 0.0
0.900000 2.931250 0.0
0.942857 2.931250 0.0
0.985714 2.931250 0.0
1.028571 2.931250 0.0
1.071429 2.931250 0.0
1.114286 2.931250 0.0
1.157143 2.931250 0.0
1.200000 2.931250 0.0
1.242857 2.931250 0.0
1.285714 2.931250 0.0
1.328571 2.931250 0.0
1.371429 2.931250 0.0
1.414286 2.931250 0.0
1.457143 2.931250 0.0
1.500000 2.931250 0.0
0.000000 2.975000 0.0
0.042857 2.975000 0.0
0.085714 2.975000 0.0
0.128571 2.975000 0.0
0.171429 2.975000 0.0
0.214286 2.975000 0.0
0.257143 2.975000 0.0
0.300000 2.975000 0.0
0.342857 2.975000 0.0
0.385714 2.975000 0.0
0.428571 2.975000 0.0
0.471429 2.975000 0.0
0.514286 2.975000 0.0
0.557143 2.975000 0.0
0.600000 2.975000 0.0
0.642857 2.975000 0.0
0.685714 2.975000 0.0
0.728571 2.975000 0.0
0.771429 2.975000 0.0
0.814286 2.975000 0.0
0.857143 2.975000 0.0
0.900000 2.975000 0.0
0.942857 2.975000 0.0
0.985714 2.975000 0.0
1.028571 2.975000 0.0
1.071429 2.975000 0.0
1.114286 2.975000 0.0
1.157143 2.975000 0.0
1.200000 2.975000 0.0
1.242857 2.975000 0.0
1.285714 2.975000 0.0
1.328571 2.975000 0.0
1.371429 2.975000 0.0
1.414286 2.975000 0.0
1.457143 2.975000 0.0
1.500000 2.975000 0.0
0.000000 3.018750 0.0
0.042857 3.018750 0.0
0.085714 3.018750 0.0
0.128571 3.018750 0.0
0.171429 3.018750 0.0
0.214286 3.018750 0.0
0.257143 3.018750 0.0
0.300000 3.018750 0.0
0.342857 3.018750 0.0
0.385714 3.018750 0.0
0.428571 3.018750 0.0
0.471429 3.018750 0.0
0.514286 3.018750 0.0
0.557143 3.018750 0.0
0.600000 3.018750 0.0
0.642857 3.018750 0.0
0.685714 3.018750 0.0
0.728571 3.018750 0.0
0.771429 3.018750 0.0
0.814286 3.018750 0.0
0.857143 3.018750 0.0
0.900000 3.018750 0.0
0.942857 3.018750 0.0
0.985714 3.018750 0.0
1.028571 3.018750 0.0
1.071429 3.018750 0.0
1.114286 3.018750 0.0
1.157143 3.018750 0.0
1.200000 3.018750 0.0
1.242857 3.018750 0.0
1.285714 3.018750 0.0
1.328571 3.018750 0.0
1.371429 3.018750 0.0
1.414286 3.018750 0.0
1.457143 3.018750 0.0
1.500000 3.018750 0.0
0.000000 3.062500 0.0
0.042857 3.062500 0.0
0.085714 3.062500 0.0
0.128571 3.062500 0.0
0.171429 3.062500 0.0
0.214286 3.062500 0.0
0.257143 3.062500 0.0
0.300000 3.062500 0.0
0.342857 3.062500 0.0
0.385714 3.062500 0.0
0.428571 3.062500 0.0
0.471429 3.062500 0.0
0.514286 3.062500 0.0
0.557143 3.062500 0.0
0.600000 3.062500 0.0
0.642857 3.062500 0.0
0.685714 3.062500 0.0
0.728571 3.062500 0.0
0.771429 3.062500 0.0
0.814286 3.062500 0.0
0.857143 3.062500 0.0
0.900000 3.062500 0.0
0.942857 3.062500 0.0
0.985714 3.062500 0.0
1.028571 3.062500 0.0
1.071429 3.062500 0.0
1.114286 3.062500 0.0
1.157143 3.062500 0.0
1.200000 3.062500 0.0
1.242857 3.062500 0.0
1.285714 3.062500 0.0
1.328571 3.062500 0.0
1.371429 3.062500 0.0
1.414286 3.062500 0.0
1.457143 3.062500 0.0
1.500000 3.062500 0.0
0.000000 3.106250 0.0
0.042857 3.106250 0.0
0.085714 3.106250 0.0
0.128571 3.106250 0.0
0.171429 3.106250 0.0
0.214286 3.106250 0.0
0.257143 3.106250 0.0
0.300000 3.106250 0.0
0.342857 3.106250 0.0
0.385714 3.106250 0.0
0.428571 3.106250 0.0
0.471429 3.106250 0.0
0.514286 3.106250 0.0
0.557143 3.106250 0.0
0.600000 3.106250 0.0
0.642857 3.106250 0.0
0.685714 3.106250 0.0
0.728571 3.106250 0.0
0.771429 3.106250 0.0
0.814286 3.106250 0.0
0.857143 3.106250 0.0
0.900000 3.106250 0.0
0.942857 3.106250 0.0
0.985714 3.106250 0.0
1.028571 3.106250 0.0
1.071429 3.106250 0.0
1.114286 3.106250 0.0
1.157143 3.106250 0.0
1.200000 3.106250 0.0
1.242857 3.106250 0.0
1.285714 3.106250 0.0
1.328571 3.106250 0.0
1.371429 3.106250 0.0
1.414286 3.106250 0.0
1.457143 3.106250 0.0
1.500000 3.106250 0.0
0.000000 3.150000 0.0
0.042857 3.150000 0.0
0.085714 3.150000 0.0
0.128571 3.150000 0.0
0.171429 3.150000 0.0
0.214286 3.150000 0.0
0.257143 3.150000 0.0
0.300000 3.150000 0.0
0.342857 3.150000 0.0
0.385714 3.150000 0.0
0.428571 3.150000 0.0
0.471429 3.150000 0.0
0.514286 3.150000 0.0
0.557143 3.150000 0.0
0.600000 3.150000 0.0
0.642857 3.150000 0.0
0.685714 3.150000 0.0
0.728571 3.150000 0.0
0.771429 3.150000 0.0
0.814286 3.150000 0.0
0.857143 3.150000 0.0
0.900000 3.150000 0.0
0.942857 3.150000 0.0
0.985714 3.150000 0.0
1.028571 3.150000 0.0
1.071429 3.150000 0.0
1.114286 3.150000 0.0
1.157143 3.150000 0.0
1.200000 3.150000 0.0
1.242857 3.150000 0.0
1.285714 3.150000 0.0
1.328571 3.150000 0.0
1.371429 3.150000 0.0
1.414286 3.150000 0.0
1.457143 3.150000 0.0
1.500000 3.150000 0.0
0.000000 3.193750 0.0
0.042857 3.193750 0.0
0.085714 3.193750 0.0
0.128571 3.193750 0.0
0.171429 3.193750 0.0
0.214286 3.193750 0.0
0.257143 3.193750 0.0
0.300000 3.193750 0.0
0.342857 3.193750 0.0
0.385714 3.193750 0.0
0.428571 3.193750 0.0
0.471429 3.193750 0.0
0.514286 3.193750 0.0
0.557143 3.193750 0.0
0.600000 3.193750 0.0
0.642857 3.193750 0.0
0.685714 3.193750 0.0
0.728571 3.193750 0.0
0.771429 3.193750 0.0
0.814286 3.193750 0.0
0.857143 3.193750 0.0
0.900000 3.193750 0.0
0.942857 3.193750 0.0
0.985714 3.193750 0.0
1.028571 3.193750 0.0
1.071429 3.193750 0.0
1.114286 3.193750 0.0
1.157143 3.193750 0.0
1.200000 3.193750 0.0
1.242857 3.193750 0.0
1.285714 3.193750 0.0
1.328571 3.193750 0.0
1.371429 3.193750 0.0
1.414286 3.193750 0.0
1.457143 3.193750 0.0
1.500000 3.193750 0.0
0.000000 3.237500 0.0
0.042857 3.237500 0.0
0.085714 3.237500 0.0
0.128571 3.237500 0.0
0.171429 3.237500 0.0
0.214286 3.237500 0.0
0.257143 3.237500 0.0
0.300000 3.237500 0.0
0.342857 3.237500 0.0
0.385714 3.237500 0.0
0.428571 3.237500 0.0
0.471429 3.237500 0.0
0.514286 3.237500 0.0
0.557143 3.237500 0.0
0.600000 3.237500 0.0
0.642857 3.237500 0.0
0.685714 3.237500 0.0
0.728571 3.237500 0.0
0.771429 3.237500 0.0
0.814286 3.237500 0.0
0.857143 3.237500 0.0
0.900000 3.237500 0.0
0.942857 3.237500 0.0
0.985714 3.237500 0.0
1.028571 3.237500 0.0
1.071429 3.237500 0.0
1.114286 3.237500 0.0
1.157143 3.237500 0.0
1.200000 3.237500 0.0
1.242857 3.237500 0.0
1.285714 3.237500 0.0
1.328571 3.237500 0.0
1.371429 3.237500 0.0
1.414286 3.237500 0.0
1.457143 3.237500 0.0
1.500000 3.237500 0.0
0.000000 3.281250 0.0
0.042857 3.281250 0.0
0.085714 3.281250 0.0
0.128571 3.281250 0.0
0.171429 3.281250 0.0
0.214286 3.281250 0.0
0.257143 3.281250 0.0
0.300000 3.281250 0.0
0.342857 3.281250 0.0
0.385714 3.281250 0.0
0.428571 3.281250 0.0
0.471429 3.281250 0.0
0.514286 3.281250 0.0
0.557143 3.281250 0.0
0.600000 3.281250 0.0
0.642857 3.281250 0.0
0.685714 3.281250 0.0
0.728571 3.281250 0.0
0.771429 3.281250 0.0
0.814286 3.281250 0.0
0.857143 3.281250 0.0
0.900000 3.281250 0.0
0.942857 3.281250 0.0
0.985714 3.281250 0.0
1.028571 3.281250 0.0
1.071429 3.281250 0.0
1.114286 3.281250 0.0
1.157143 3.281250 0.0
1.200000 3.281250 0.0
1.242857 3.281250 0.0
1.285714 3.281250 0.0
1.328571 3.281250 0.0
1.371429 3.281250 0.0
1.414286 3.281250 0.0
1.457143 3.281250 0.0
1.500000 3.281250 0.0
0.000000 3.325000 0.0
0.042857 3.325000 0.0
0.085714 3.325000 0.0
0.128571 3.325000 0.0
0.171429 3.325000 0.0
0.214286 3.325000 0.0
0.257143 3.325000 0.0
0.300000 3.325000 0.0
0.342857 3.325000 0.0
0.385714 3.325000 0.0
0.428571 3.325000 0.0
0.471429 3.325000 0.0
0.514286 3.325000 0.0
0.557143 3.325000 0.0
0.600000 3.325000 0.0
0.642857 3.325000 0.0
0.685714 3.325000 0.0
0.728571 3.325000 0.0
0.771429 3.325000 0.0
0.814286 3.325000 0.0
0.857143 3.325000 0.0
0.900000 3.325000 0.0
0.942857 3.325000 0.0
0.985714 3.325000 0.0
1.028571 3.325000 0.0
1.071429 3.325000 0.0
1.114286 3.325000 0.0
1.157143 3.325000 0.0
1.200000 3.325000 0.0
1.242857 3.325000 0.0
1.285714 3.325000 0.0
1.328571 3.325000 0.0
1.371429 3.325000 0.0
1.414286 3.325000 0.0
1.457143 3.325000 0.0
1.500000 3.325000 0.0
0.000000 3.368750 0.0
0.042857 3.368750 0.0
0.085714 3.368750 0.0
0.128571 3.368750 0.0
0.171429 3.368750 0.0
0.214286 3.368750 0.0
0.257143 3.368750 0.0
0.300000 3.368750 0.0
0.342857 3.368750 0.0
0.385714 3.368750 0.0
0.428571 3.368750 0.0
0.471429 3.368750 0.0
0.514286 3.368750 0.0
0.557143 3.368750 0.0
0.600000 3.368750 0.0
0.642857 3.368750 0.0
0.685714 3.368750 0.0
0.728571 3.368750 0.0
0.771429 3.368750 0.0
0.814286 3.368750 0.0
0.857143 3.368750 0.0
0.900000 3.368750 0.0
0.942857 3.368750 0.0
0.985714 3.368750 0.0
1.028571 3.368750 0.0
1.071429 3.368750 0.0
1.114286 3.368750 0.0
1.157143 3.368750 0.0
1.200000 3.368750 0.0
1.242857 3.368750 0.0
1.285714 3.368750 0.0
1.328571 3.368750 0.0
1.371429 3.368750 0.0
1.414286 3.368750 0.0
1.457143 3.368750 0.0
1.500000 3.368750 0.0
0.000000 3.412500 0.0
0.042857 3.412500 0.0
0.085714 3.412500 0.0
0.128571 3.412500 0.0
0.171429 3.412500 0.0
0.214286 3.412500 0.0
0.257143 3.412500 0.0
0.300000 3.412500 0.0
0.342857 3.412500 0.0
0.385714 3.412500 0.0
0.428571 3.412500 0.0
0.471429 3.412500 0.0
0.514286 3.412500 0.0
0.557143 3.412500 0.0
0.600000 3.412500 0.0
0.642857 3.412500 0.0
0.685714 3.412500 0.0
0.728571 3.412500 0.0
0.771429 3.412500 0.0
0.814286 3.412500 0.0
0.857143 3.412500 0.0
0.900000 3.412500 0.0
0.942857 3.412500 0.0
0.985714 3.412500 0.0
1.028571 3.412500 0.0
1.071429 3.412500 0.0
1.114286 3.412500 0.0
1.157143 3.412500 0.0
1.200000 3.412500 0.0
1.242857 3.412500 0.0
1.285714 3.412500 0.0
1.328571 3.412500 0.0
1.371429 3.412500 0.0
1.414286 3.412500 0.0
1.457143 3.412500 0.0
1.500000 3.412500 0.0
0.000000 3.456250 0.0
0.042857 3.456250 0.0
0.085714 3.456250 0.0
0.128571 3.456250 0.0
0.171429 3.456250 0.0
0.214286 3.456250 0.0
0.257143 3.456250 0.0
0.300000 3.456250 0.0
0.342857 3.456250 0.0
0.385714 3.456250 0.0
0.428571 3.456250 0.0
0.471429 3.456250 0.0
0.514286 3.456250 0.0
0.557143 3.456250 0.0
0.600000 3.456250 0.0
0.642857 3.456250 0.0
0.685714 3.456250 0.0
0.728571 3.456250 0.0
0.771429 3.456250 0.0
0.814286 3.456250 0.0
0.857143 3.456250 0.0
0.900000 3.456250 0.0
0.942857 3.456250 0.0
0.985714 3.456250 0.0
1.028571 3.456250 0.0
1.071429 3.456250 0.0
1.114286 3.456250 0.0
1.157143 3.456250 0.0
1.200000 3.456250 0.0
1.242857 3.456250 0.0
1.285714 3.456250 0.0
1.328571 3.456250 0.0
1.371429 3.456250 0.0
1.414286 3.456250 0.0
1.457143 3.456250 0.0
1.500000 3.456250 0.0
0.000000 3.500000 0.0
0.042857 3.500000 0.0
0.085714 3.500000 0.0
0.128571 3.500000 0.0
0.171429 3.500000 0.0
0.214286 3.500000 0.0
0.257143 3.500000 0.0
0.300000 3.500000 0.0
0.342857 3.500000 0.0
0.385714 3.500000 0.0
0.428571 3.500000 0.0
0.471429 3.500000 0.0
0.514286 3.500000 0.0
0.557143 3.500000 0.0
0.600000 3.500000 0.0
0.642857 3.500000 0.0
0.685714 3.500000 0.0
0.728571 3.500000 0.0
0.771429 3.500000 0.0
0.814286 3.500000 0.0
0.857143 3.500000 0.0
0.900000 3.500000 0.0
0.942857 3.500000 0.0
0.985714 3.500000 0.0
1.028571 3.500000 0.0
1.071429 3.500000 0.0
1.114286 3.500000 0.0
1.157143 3.500000 0.0
1.200000 3.500000 0.0
1.242857 3.500000 0.0
1.285714 3.500000 0.0
1.328571 3.500000 0.0
1.371429 3.500000 0.0
1.414286 3.500000 0.0
1.457143 3.500000 0.0
1.500000 3.500000 0.0
</DataArray></Points>
<PointData>
<DataArray NumberOfComponents="1" format="ascii" type ="Float32" Name="phi">
-0.136980
-0.125947
-0.125710
-0.125387
-0.124991
-0.124521
-0.123963
-0.123297
-0.122497
-0.121536
-0.120382
-0.118992
-0.117255
-0.115113
-0.112589
-0.109789
-0.107155
-0.104936
-0.102894
-0.100778
-0.098432
-0.095772
-0.092766
-0.089363
-0.085525
-0.081232
-0.076552
-0.071772
-0.067005
-0.062317
-0.057896
-0.053851
-0.050356
-0.047617
-0.045819
-0.045103
-0.169792
-0.169697
-0.169459
-0.169135
-0.168738
-0.168268
-0.167709
-0.167040
-0.166237
-0.165272
-0.164112
-0.162711
-0.160958
-0.158794
-0.156251
-0.153456
-0.150842
-0.148635
-0.146591
-0.144468
-0.142106
-0.139426
-0.136392
-0.132954
-0.129070
-0.124725
-0.120029
-0.115250
-0.110473
-0.105784
-0.101388
-0.097396
-0.093962
-0.091281
-0.089528
-0.088831
-0.213542
-0.213446
-0.213208
-0.212883
-0.212486
-0.212014
-0.211453
-0.210783
-0.209977
-0.209008
-0.207842
-0.206430
-0.204661
-0.202474
-0.199914
-0.197124
-0.194530
-0.192334
-0.190289
-0.188156
-0.185779
-0.183077
-0.180016
-0.176542
-0.172610
-0.168217
-0.163509
-0.158734
-0.153960
-0.149293
-0.144935
-0.140989
-0.137606
-0.134978
-0.133264
-0.132584
-0.257291
-0.257195
-0.256956
-0.256631
-0.256233
-0.255760
-0.255198
-0.254526
-0.253717
-0.252744
-0.251571
-0.250149
-0.248362
-0.246153
-0.243578
-0.240794
-0.238220
-0.236034
-0.233986
-0.231845
-0.229451
-0.226727
-0.223637
-0.220126
-0.216144
-0.211708
-0.206991
-0.202220
-0.197451
-0.192808
-0.188488
-0.184589
-0.181259
-0.178681
-0.177005
-0.176342
-0.301041
-0.300945
-0.300705
-0.300379
-0.299980
-0.299507
-0.298943
-0.298268
-0.297457
-0.296479
-0.295300
-0.293867
-0.292063
-0.289832
-0.287242
-0.284466
-0.281912
-0.279734
-0.277683
-0.275533
-0.273122
-0.270376
-0.267257
-0.263707
-0.259674
-0.255200
-0.250476
-0.245708
-0.240946
-0.236330
-0.232049
-0.228196
-0.224918
-0.222390
-0.220751
-0.220103
-0.344790
-0.344694
-0.344454
-0.344127
-0.343727
-0.343253
-0.342688
-0.342011
-0.341196
-0.340214
-0.339029
-0.337585
-0.335763
-0.333509
-0.330906
-0.328140
-0.325604
-0.323435
-0.321380
-0.319220
-0.316792
-0.314023
-0.310875
-0.307283
-0.303201
-0.298693
-0.293962
-0.289198
-0.284446
-0.279857
-0.275617
-0.271810
-0.268585
-0.266105
-0.264502
-0.263869
-0.388540
-0.388443
-0.388202
-0.387875
-0.387475
-0.386999
-0.386432
-0.385754
-0.384936
-0.383950
-0.382759
-0.381302
-0.379462
-0.377185
-0.374570
-0.371814
-0.369298
-0.367136
-0.365078
-0.362908
-0.360462
-0.357670
-0.354490
-0.350855
-0.346724
-0.342186
-0.337451
-0.332690
-0.327950
-0.323391
-0.319191
-0.315432
-0.312257
-0.309825
-0.308257
-0.307638
-0.432289
-0.432192
-0.431951
-0.431623
-0.431222
-0.430745
-0.430177
-0.429496
-0.428676
-0.427685
-0.426488
-0.425020
-0.423160
-0.420861
-0.418235
-0.415491
-0.412993
-0.410838
-0.408776
-0.406595
-0.404131
-0.401315
-0.398103
-0.394423
-0.390245
-0.385680
-0.380942
-0.376185
-0.371459
-0.366931
-0.362773
-0.359061
-0.355936
-0.353550
-0.352015
-0.351410
-0.476039
-0.475942
-0.475700
-0.475371
-0.474969
-0.474491
-0.473922
-0.473239
-0.472416
-0.471421
-0.470216
-0.468736
-0.466857
-0.464536
-0.461901
-0.459168
-0.456689
-0.454540
-0.452474
-0.450282
-0.447800
-0.444959
-0.441714
-0.437987
-0.433763
-0.429176
-0.424435
-0.419682
-0.414972
-0.410477
-0.406360
-0.402695
-0.399621
-0.397280
-0.395776
-0.395184
-0.519788
-0.519691
-0.519448
-0.519119
-0.518716
-0.518238
-0.517667
-0.516982
-0.516156
-0.515157
-0.513945
-0.512453
-0.510553
-0.508210
-0.505567
-0.502848
-0.500386
-0.498242
-0.496173
-0.493970
-0.491468
-0.488601
-0.485321
-0.481547
-0.477280
-0.472672
-0.467930
-0.463183
-0.458489
-0.454028
-0.449954
-0.446336
-0.443311
-0.441014
-0.439541
-0.438961
-0.563537
-0.563440
-0.563197
-0.562867
-0.562464
-0.561984
-0.561412
-0.560725
-0.559896
-0.558892
-0.557674
-0.556168
-0.554248
-0.551884
-0.549234
-0.546528
-0.544084
-0.541945
-0.539871
-0.537656
-0.535135
-0.532243
-0.528925
-0.525103
-0.520795
-0.516169
-0.511428
-0.506687
-0.502012
-0.497586
-0.493555
-0.489983
-0.487006
-0.484751
-0.483308
-0.482741
-0.607287
-0.607189
-0.606946
-0.606615
-0.606211
-0.605730
-0.605157
-0.604468
-0.603636
-0.602628
-0.601403
-0.599884
-0.597941
-0.595557
-0.592901
-0.590210
-0.587783
-0.585649
-0.583570
-0.581343
-0.578802
-0.575882
-0.572526
-0.568655
-0.564308
-0.559669
-0.554928
-0.550193
-0.545539
-0.541149
-0.537161
-0.533635
-0.530705
-0.528492
-0.527078
-0.526522
-0.651036
-0.650938
-0.650694
-0.650363
-0.649958
-0.649477
-0.648902
-0.648211
-0.647376
-0.646364
-0.645131
-0.643598
-0.641634
-0.639230
-0.636570
-0.633893
-0.631482
-0.629352
-0.627268
-0.625029
-0.622468
-0.619520
-0.616123
-0.612204
-0.607821
-0.603170
-0.598430
-0.593703
-0.589071
-0.584718
-0.580772
-0.577293
-0.574409
-0.572236
-0.570849
-0.570305
-0.694785
-0.694687
-0.694443
-0.694111
-0.693706
-0.693223
-0.692647
-0.691954
-0.691116
-0.690100
-0.688860
-0.687312
-0.685326
-0.682904
-0.680241
-0.677577
-0.675183
-0.673056
-0.670967
-0.668715
-0.666132
-0.663156
-0.659717
-0.655749
-0.651333
-0.646673
-0.641934
-0.637216
-0.632608
-0.628293
-0.624390
-0.620956
-0.618117
-0.615983
-0.614623
-0.614090
-0.738535
-0.738436
-0.738192
-0.737859
-0.737453
-0.736970
-0.736393
-0.735698
-0.734857
-0.733836
-0.732588
-0.731025
-0.729017
-0.726580
-0.723914
-0.721262
-0.718884
-0.716760
-0.714666
-0.712401
-0.709796
-0.706790
-0.703307
-0.699291
-0.694845
-0.690176
-0.685441
-0.680732
-0.676150
-0.671873
-0.668012
-0.664623
-0.661830
-0.659733
-0.658399
-0.657876
-0.782284
-0.782185
-0.781940
-0.781608
-0.781201
-0.780717
-0.780138
-0.779441
-0.778597
-0.777571
-0.776317
-0.774738
-0.772707
-0.770257
-0.767589
-0.764949
-0.762586
-0.760465
-0.758365
-0.756086
-0.753459
-0.750422
-0.746894
-0.742830
-0.738357
-0.733681
-0.728949
-0.724252
-0.719697
-0.715459
-0.711640
-0.708295
-0.705546
-0.703486
-0.702177
-0.701664
-0.826033
-0.825934
-0.825689
-0.825356
-0.824948
-0.824463
-0.823884
-0.823185
-0.822338
-0.821307
-0.820045
-0.818449
-0.816397
-0.813933
-0.811264
-0.808636
-0.806289
-0.804170
-0.802064
-0.799771
-0.797121
-0.794051
-0.790476
-0.786367
-0.781869
-0.777187
-0.772459
-0.767775
-0.763248
-0.759049
-0.755273
-0.751972
-0.749265
-0.747242
-0.745957
-0.745454
-0.869782
-0.869683
-0.869437
-0.869104
-0.868696
-0.868210
-0.867629
-0.866928
-0.866078
-0.865043
-0.863772
-0.862160
-0.860085
-0.857609
-0.854939
-0.852325
-0.849992
-0.847875
-0.845763
-0.843455
-0.840781
-0.837677
-0.834054
-0.829901
-0.825380
-0.820694
-0.815971
-0.811301
-0.806804
-0.802645
-0.798911
-0.795653
-0.792988
-0.790999
-0.789737
-0.789244
-0.913531
-0.913432
-0.913186
-0.912852
-0.912444
-0.911957
-0.911375
-0.910672
-0.909819
-0.908779
-0.907500
-0.905870
-0.903773
-0.901284
-0.898614
-0.896015
-0.893695
-0.891580
-0.889461
-0.887138
-0.884439
-0.881298
-0.877627
-0.873432
-0.868892
-0.864203
-0.859485
-0.854831
-0.850364
-0.846245
-0.842553
-0.839339
-0.836714
-0.834758
-0.833519
-0.833035
-0.957281
-0.957181
-0.956935
-0.956600
-0.956191
-0.955704
-0.955120
-0.954416
-0.953560
-0.952515
-0.951227
-0.949579
-0.947460
-0.944959
-0.942291
-0.939705
-0.937398
-0.935284
-0.933160
-0.930821
-0.928096
-0.924916
-0.921196
-0.916962
-0.912403
-0.907713
-0.903002
-0.898364
-0.893929
-0.889850
-0.886199
-0.883028
-0.880443
-0.878519
-0.877303
-0.876827
-0.979155
-0.979056
-0.978809
-0.978475
-0.978065
-0.977577
-0.976993
-0.976288
-0.975430
-0.974383
-0.973091
-0.971434
-0.969303
-0.966797
-0.964129
-0.961551
-0.959250
-0.957136
-0.955009
-0.952662
-0.949924
-0.946724
-0.942980
-0.938726
-0.934160
-0.929468
-0.924761
-0.920132
-0.915713
-0.911654
-0.908023
-0.904873
-0.902308
-0.900401
-0.899195
-0.898723
</DataArray>
<DataArray NumberOfComponents="1" format="ascii" type ="Float32" Name="u">
0.000000
-0.011515
-0.011530
-0.011558
-0.011600
-0.011655
-0.011720
-0.011794
-0.011872
-0.011946
-0.012008
-0.012043
-0.012027
-0.011925
-0.011692
-0.011293
-0.010854
-0.010717
-0.010789
-0.010963
-0.011163
-0.011344
-0.011479
-0.011545
-0.011521
-0.011374
-0.011052
-0.010463
-0.009451
-0.008397
-0.007489
-0.006426
-0.005130
-0.003614
-0.001934
-0.000164
-0.011680
-0.011680
-0.011701
-0.011728
-0.011763
-0.011805
-0.011853
-0.011904
-0.011953
-0.011995
-0.012020
-0.012017
-0.011970
-0.011861
-0.011676
-0.011413
-0.011118
-0.010919
-0.010841
-0.010855
-0.010917
-0.010986
-0.011030
-0.011021
-0.010931
-0.010727
-0.010368
-0.009802
-0.008984
-0.008010
-0.007019
-0.005933
-0.004689
-0.003275
-0.001723
-0.000092
-0.011687
-0.011687
-0.011703
-0.011724
-0.011750
-0.011778
-0.011808
-0.011837
-0.011860
-0.011874
-0.011870
-0.011841
-0.011778
-0.011674
-0.011523
-0.011331
-0.011118
-0.010930
-0.010795
-0.010710
-0.010660
-0.010620
-0.010562
-0.010463
-0.010296
-0.010033
-0.009646
-0.009106
-0.008394
-0.007529
-0.006565
-0.005497
-0.004306
-0.002985
-0.001558
-0.000068
-0.011602
-0.011602
-0.011613
-0.011628
-0.011643
-0.011659
-0.011673
-0.011683
-0.011685
-0.011676
-0.011651
-0.011604
-0.011532
-0.011429
-0.011297
-0.011138
-0.010963
-0.010789
-0.010632
-0.010496
-0.010373
-0.010251
-0.010113
-0.009938
-0.009706
-0.009395
-0.008985
-0.008457
-0.007798
-0.007007
-0.006101
-0.005087
-0.003964
-0.002736
-0.001424
-0.000061
-0.011471
-0.011471
-0.011478
-0.011486
-0.011493
-0.011498
-0.011499
-0.011493
-0.011478
-0.011452
-0.011411
-0.011352
-0.011271
-0.011168
-0.011042
-0.010896
-0.010736
-0.010567
-0.010398
-0.010231
-0.010063
-0.009886
-0.009689
-0.009458
-0.009177
-0.008829
-0.008401
-0.007877
-0.007247
-0.006505
-0.005656
-0.004704
-0.003654
-0.002516
-0.001308
-0.000060
-0.011319
-0.011319
-0.011324
-0.011328
-0.011328
-0.011323
-0.011313
-0.011295
-0.011267
-0.011228
-0.011175
-0.011105
-0.011017
-0.010911
-0.010785
-0.010642
-0.010484
-0.010313
-0.010134
-0.009946
-0.009747
-0.009532
-0.009294
-0.009023
-0.008706
-0.008332
-0.007889
-0.007366
-0.006755
-0.006049
-0.005248
-0.004355
-0.003376
-0.002320
-0.001207
-0.000059
-0.011161
-0.011161
-0.011165
-0.011165
-0.011160
-0.011148
-0.011129
-0.011102
-0.011064
-0.011014
-0.010951
-0.010873
-0.010778
-0.010667
-0.010538
-0.010392
-0.010231
-0.010055
-0.009865
-0.009660
-0.009439
-0.009198
-0.008931
-0.008630
-0.008288
-0.007895
-0.007441
-0.006920
-0.006322
-0.005644
-0.004884
-0.004043
-0.003127
-0.002146
-0.001116
-0.000058
-0.011006
-0.011006
-0.011009
-0.011006
-0.010997
-0.010980
-0.010954
-0.010919
-0.010873
-0.010815
-0.010744
-0.010658
-0.010557
-0.010440
-0.010306
-0.010156
-0.009989
-0.009805
-0.009605
-0.009387
-0.009149
-0.008887
-0.008599
-0.008278
-0.007917
-0.007510
-0.007050
-0.006530
-0.005944
-0.005289
-0.004563
-0.003768
-0.002908
-0.001993
-0.001036
-0.000055
-0.010857
-0.010857
-0.010859
-0.010855
-0.010842
-0.010821
-0.010790
-0.010749
-0.010697
-0.010632
-0.010554
-0.010462
-0.010354
-0.010231
-0.010092
-0.009936
-0.009762
-0.009571
-0.009361
-0.009131
-0.008880
-0.008603
-0.008299
-0.007963
-0.007589
-0.007172
-0.006708
-0.006190
-0.005616
-0.004981
-0.004284
-0.003528
-0.002717
-0.001859
-0.000966
-0.000053
-0.010717
-0.010717
-0.010719
-0.010713
-0.010698
-0.010674
-0.010639
-0.010593
-0.010535
-0.010465
-0.010381
-0.010283
-0.010170
-0.010041
-0.009896
-0.009734
-0.009554
-0.009355
-0.009136
-0.008897
-0.008634
-0.008346
-0.008030
-0.007682
-0.007299
-0.006876
-0.006410
-0.005896
-0.005331
-0.004713
-0.004043
-0.003321
-0.002552
-0.001744
-0.000905
-0.000049
-0.010586
-0.010586
-0.010588
-0.010581
-0.010565
-0.010538
-0.010500
-0.010450
-0.010388
-0.010313
-0.010225
-0.010122
-0.010003
-0.009869
-0.009719
-0.009550
-0.009364
-0.009158
-0.008932
-0.008684
-0.008413
-0.008116
-0.007790
-0.007434
-0.007045
-0.006618
-0.006150
-0.005640
-0.005085
-0.004483
-0.003835
-0.003143
-0.002411
-0.001644
-0.000852
-0.000046
-0.010465
-0.010465
-0.010466
-0.010459
-0.010441
-0.010413
-0.010372
-0.010320
-0.010254
-0.010176
-0.010083
-0.009975
-0.009853
-0.009714
-0.009558
-0.009384
-0.009192
-0.008981
-0.008748
-0.008493
-0.008214
-0.007910
-0.007578
-0.007216
-0.006821
-0.006392
-0.005926
-0.005420
-0.004874
-0.004286
-0.003658
-0.002991
-0.002290
-0.001559
-0.000807
-0.000043
-0.010350
-0.010350
-0.010351
-0.010343
-0.010325
-0.010295
-0.010252
-0.010198
-0.010129
-0.010048
-0.009952
-0.009841
-0.009714
-0.009571
-0.009411
-0.009233
-0.009036
-0.008819
-0.008581
-0.008320
-0.008036
-0.007726
-0.007389
-0.007023
-0.006626
-0.006196
-0.005731
-0.005230
-0.004692
-0.004117
-0.003507
-0.002862
-0.002187
-0.001487
-0.000769
-0.000040
-0.010230
-0.010230
-0.010231
-0.010223
-0.010204
-0.010173
-0.010130
-0.010073
-0.010003
-0.009919
-0.009821
-0.009707
-0.009577
-0.009431
-0.009268
-0.009086
-0.008886
-0.008665
-0.008423
-0.008159
-0.007870
-0.007557
-0.007217
-0.006848
-0.006450
-0.006020
-0.005558
-0.005063
-0.004533
-0.003971
-0.003376
-0.002751
-0.002099
-0.001426
-0.000736
-0.000038
-0.010080
-0.010080
-0.010081
-0.010073
-0.010054
-0.010023
-0.009979
-0.009922
-0.009851
-0.009766
-0.009666
-0.009551
-0.009420
-0.009272
-0.009107
-0.008924
-0.008722
-0.008499
-0.008255
-0.007989
-0.007700
-0.007385
-0.007044
-0.006676
-0.006279
-0.005853
-0.005395
-0.004907