<VTKFile type="StructuredGrid" version="0.1" byte_order="LittleEndian">
<StructuredGrid WholeExtent="1 71 1 81 0 0">
<Piece Extent="36 71 21 41 0 0">
<PointData></PointData>
<CellData></CellData>
<Points>
<DataArray NumberOfComponents="3" format="ascii" type ="Float32" Name="mesh">
1.500000 0.875000 0.0
1.542857 0.875000 0.0
1.585714 0.875000 0.0
1.628571 0.875000 0.0
1.671429 0.875000 0.0
1.714286 0.875000 0.0
1.757143 0.875000 0.0
1.800000 0.875000 0.0
1.842857 0.875000 0.0
1.885714 0.875000 0.0
1.928571 0.875000 0.0
1.971429 0.875000 0.0
2.014286 0.875000 0.0
2.057143 0.875000 0.0
2.100000 0.875000 0.0
2.142857 0.875000 0.0
2.185714 0.875000 0.0
2.228571 0.875000 0.0
2.271429 0.875000 0.0
2.314286 0.875000 0.0
2.357143 0.875000 0.0
2.400000 0.875000 0.0
2.442857 0.875000 0.0
2.485714 0.875000 0.0
2.528571 0.875000 0.0
2.571429 0.875000 0.0
2.614286 0.875000 0.0
2.657143 0.875000 0.0
2.700000 0.875000 0.0
2.742857 0.875000 0.0
2.785714 0.875000 0.0
2.828571 0.875000 0.0
2.871429 0.875000 0.0
2.914286 0.875000 0.0
2.957143 0.875000 0.0
3.000000 0.875000 0.0
1.500000 0.918750 0.0
1.542857 0.918750 0.0
1.585714 0.918750 0.0
1.628571 0.918750 0.0
1.671429 0.918750 0.0
1.714286 0.918750 0.0
1.757143 0.918750 0.0
1.800000 0.918750 0.0
1.842857 0.918750 0.0
1.885714 0.918750 0.0
1.928571 0.918750 0.0
1.971429 0.918750 0.0
2.014286 0.918750 0.0
2.057143 0.918750 0.0
2.100000 0.918750 0.0
2.142857 0.918750 0.0
2.185714 0.918750 0.0
2.228571 0.918750 0.0
2.271429 0.918750 0.0
2.314286 0.918750 0.0
2.357143 0.918750 0.0
2.400000 0.918750 0.0
2.442857 0.918750 0.0
2.485714 0.918750 0.0
2.528571 0.918750 0.0
2.571429 0.918750 0.0
2.614286 0.918750 0.0
2.657143 0.918750 0.0
2.700000 0.918750 0.0
2.742857 0.918750 0.0
2.785714 0.918750 0.0
2.828571 0.918750 0.0
2.871429 0.918750 0.0
2.914286 0.918750 0.0
2.957143 0.918750 0.0
3.000000 0.918750 0.0
1.500000 0.962500 0.0
1.542857 0.962500 0.0
1.585714 0.962500 0.0
1.628571 0.962500 0.0
1.671429 0.962500 0.0
1.714286 0.962500 0.0
1.757143 0.962500 0.0
1.800000 0.962500 0.0
1.842857 0.962500 0.0
1.885714 0.962500 0.0
1.928571 0.962500 0.0
1.971429 0.962500 0.0
2.014286 0.962500 0.0
2.057143 0.962500 0.0
2.100000 0.962500 0.0
2.142857 0.962500 0.0
2.185714 0.962500 0.0
2.228571 0.962500 0.0
2.271429 0.962500 0.0
2.314286 0.962500 0.0
2.357143 0.962500 0.0
2.400000 0.962500 0.0
2.442857 0.962500 0.0
2.485714 0.962500 0.0
2.528571 0.962500 0.0
2.571429 0.962500 0.0
2.614286 0.962500 0.0
2.657143 0.962500 0.0
2.700000 0.962500 0.0
2.742857 0.962500 0.0
2.785714 0.962500 0.0
2.828571 0.962500 0.0
2.871429 0.962500 0.0
2.914286 0.962500 0.0
2.957143 0.962500 0.0
3.000000 0.962500 0.0
1.500000 1.006250 0.0
1.542857 1.006250 0.0
1.585714 1.006250 0.0
1.628571 1.006250 0.0
1.671429 1.006250 0.0
1.714286 1.006250 0.0
1.757143 1.006250 0.0
1.800000 1.006250 0.0
1.842857 1.006250 0.0
1.885714 1.006250 0.0
1.928571 1.006250 0.0
1.971429 1.006250 0.0
2.014286 1.006250 0.0
2.057143 1.006250 0.0
2.100000 1.006250 0.0
2.142857 1.006250 0.0
2.185714 1.006250 0.0
2.228571 1.006250 0.0
2.271429 1.006250 0.0
2.314286 1.006250 0.0
2.357143 1.006250 0.0
2.400000 1.006250 0.0
2.442857 1.006250 0.0
2.485714 1.006250 0.0
2.528571 1.006250 0.0
2.571429 1.006250 0.0
2.614286 1.006250 0.0
2.657143 1.006250 0.0
2.700000 1.006250 0.0
2.742857 1.006250 0.0
2.785714 1.006250 0.0
2.828571 1.006250 0.0
2.871429 1.006250 0.0
2.914286 1.006250 0.0
2.957143 1.006250 0.0
3.000000 1.006250 0.0
1.500000 1.050000 0.0
1.542857 1.050000 0.0
1.585714 1.050000 0.0
1.628571 1.050000 0.0
1.671429 1.050000 0.0
1.714286 1.050000 0.0
1.757143 1.050000 0.0
1.800000 1.050000 0.0
1.842857 1.050000 0.0
1.885714 1.050000 0.0
1.928571 1.050000 0.0
1.971429 1.050000 0.0
2.014286 1.050000 0.0
2.057143 1.050000 0.0
2.100000 1.050000 0.0
2.142857 1.050000 0.0
2.185714 1.050000 0.0
2.228571 1.050000 0.0
2.271429 1.050000 0.0
2.314286 1.050000 0.0
2.357143 1.050000 0.0
2.400000 1.050000 0.0
2.442857 1.050000 0.0
2.485714 1.050000 0.0
2.528571 1.050000 0.0
2.571429 1.050000 0.0
2.614286 1.050000 0.0
2.657143 1.050000 0.0
2.700000 1.050000 0.0
2.742857 1.050000 0.0
2.785714 1.050000 0.0
2.828571 1.050000 0.0
2.871429 1.050000 0.0
2.914286 1.050000 0.0
2.957143 1.050000 0.0
3.000000 1.050000 0.0
1.500000 1.093750 0.0
1.542857 1.093750 0.0
1.585714 1.093750 0.0
1.628571 1.093750 0.0
1.671429 1.093750 0.0
1.714286 1.093750 0.0
1.757143 1.093750 0.0
1.800000 1.093750 0.0
1.842857 1.093750 0.0
1.885714 1.093750 0.0
1.928571 1.093750 0.0
1.971429 1.093750 0.0
2.014286 1.093750 0.0
2.057143 1.093750 0.0
2.100000 1.093750 0.0
2.142857 1.093750 0.0
2.185714 1.093750 0.0
2.228571 1.093750 0.0
2.271429 1.093750 0.0
2.314286 1.093750 0.0
2.357143 1.093750 0.0
2.400000 1.093750 0.0
2.442857 1.093750 0.0
2.485714 1.093750 0.0
2.528571 1.093750 0.0
2.571429 1.093750 0.0
2.614286 1.093750 0.0
2.657143 1.093750 0.0
2.700000 1.093750 0.0
2.742857 1.093750 0.0
2.785714 1.093750 0.0
2.828571 1.093750 0.0
2.871429 1.093750 0.0
2.914286 1.093750 0.0
2.957143 1.093750 0.0
3.000000 1.093750 0.0
1.500000 1.137500 0.0
1.542857 1.137500 0.0
1.585714 1.137500 0.0
1.628571 1.137500 0.0
1.671429 1.137500 0.0
1.714286 1.137500 0.0
1.757143 1.137500 0.0
1.800000 1.137500 0.0
1.842857 1.137500 0.0
1.885714 1.137500 0.0
1.928571 1.137500 0.0
1.971429 1.137500 0.0
2.014286 1.137500 0.0
2.057143 1.137500 0.0
2.100000 1.137500 0.0
2.142857 1.137500 0.0
2.185714 1.137500 0.0
2.228571 1.137500 0.0
2.271429 1.137500 0.0
2.314286 1.137500 0.0
2.357143 1.137500 0.0
2.400000 1.137500 0.0
2.442857 1.137500 0.0
2.485714 1.137500 0.0
2.528571 1.137500 0.0
2.571429 1.137500 0.0
2.614286 1.137500 0.0
2.657143 1.137500 0.0
2.700000 1.137500 0.0
2.742857 1.137500 0.0
2.785714 1.137500 0.0
2.828571 1.137500 0.0
2.871429 1.137500 0.0
2.914286 1.137500 0.0
2.957143 1.137500 0.0
3.000000 1.137500 0.0
1.500000 1.181250 0.0
1.542857 1.181250 0.0
1.585714 1.181250 0.0
1.628571 1.181250 0.0
1.671429 1.181250 0.0
1.714286 1.181250 0.0
1.757143 1.181250 0.0
1.800000 1.181250 0.0
1.842857 1.181250 0.0
1.885714 1.181250 0.0
1.928571 1.181250 0.0
1.971429 1.181250 0.0
2.014286 1.181250 0.0
2.057143 1.181250 0.0
2.100000 1.181250 0.0
2.142857 1.181250 0.0
2.185714 1.181250 0.0
2.228571 1.181250 0.0
2.271429 1.181250 0.0
2.314286 1.181250 0.0
2.357143 1.181250 0.0
2.400000 1.181250 0.0
2.442857 1.181250 0.0
2.485714 1.181250 0.0
2.528571 1.181250 0.0
2.571429 1.181250 0.0
2.614286 1.181250 0.0
2.657143 1.181250 0.0
2.700000 1.181250 0.0
2.742857 1.181250 0.0
2.785714 1.181250 0.0
2.828571 1.181250 0.0
2.871429 1.181250 0.0
2.914286 1.181250 0.0
2.957143 1.181250 0.0
3.000000 1.181250 0.0
1.500000 1.225000 0.0
1.542857 1.225000 0.0
1.585714 1.225000 0.0
1.628571 1.225000 0.0
1.671429 1.225000 0.0
1.714286 1.225000 0.0
1.757143 1.225000 0.0
1.800000 1.225000 0.0
1.842857 1.225000 0.0
1.885714 1.225000 0.0
1.928571 1.225000 0.0
1.971429 1.225000 0.0
2.014286 1.225000 0.0
2.057143 1.225000 0.0
2.100000 1.225000 0.0
2.142857 1.225000 0.0
2.185714 1.225000 0.0
2.228571 1.225000 0.0
2.271429 1.225000 0.0
2.314286 1.225000 0.0
2.357143 1.225000 0.0
2.400000 1.225000 0.0
2.442857 1.225000 0.0
2.485714 1.225000 0.0
2.528571 1.225000 0.0
2.571429 1.225000 0.0
2.614286 1.225000 0.0
2.657143 1.225000 0.0
2.700000 1.225000 0.0
2.742857 1.225000 0.0
2.785714 1.225000 0.0
2.828571 1.225000 0.0
2.871429 1.225000 0.0
2.914286 1.225000 0.0
2.957143 1.225000 0.0
3.000000 1.225000 0.0
1.500000 1.268750 0.0
1.542857 1.268750 0.0
1.585714 1.268750 0.0
1.628571 1.268750 0.0
1.671429 1.268750 0.0
1.714286 1.268750 0.0
1.757143 1.268750 0.0
1.800000 1.268750 0.0
1.842857 1.268750 0.0
1.885714 1.268750 0.0
1.928571 1.268750 0.0
1.971429 1.268750 0.0
2.014286 1.268750 0.0
2.057143 1.268750 0.0
2.100000 1.268750 0.0
2.142857 1.268750 0.0
2.185714 1.268750 0.0
2.228571 1.268750 0.0
2.271429 1.268750 0.0
2.314286 1.268750 0.0
2.357143 1.268750 0.0
2.400000 1.268750 0.0
2.442857 1.268750 0.0
2.485714 1.268750 0.0
2.528571 1.268750 0.0
2.571429 1.268750 0.0
2.614286 1.268750 0.0
2.657143 1.268750 0.0
2.700000 1.268750 0.0
2.742857 1.268750 0.0
2.785714 1.268750 0.0
2.828571 1.268750 0.0
2.871429 1.268750 0.0
2.914286 1.268750 0.0
2.957143 1.268750 0.0
3.000000 1.268750 0.0
1.500000 1.312500 0.0
1.542857 1.312500 0.0
1.585714 1.312500 0.0
1.628571 1.312500 0.0
1.671429 1.312500 0.0
1.714286 1.312500 0.0
1.757143 1.312500 0.0
1.800000 1.312500 0.0
1.842857 1.312500 0.0
1.885714 1.312500 0.0
1.928571 1.312500 0.0
1.971429 1.312500 0.0
2.014286 1.312500 0.0
2.057143 1.312500 0.0
2.100000 1.312500 0.0
2.142857 1.312500 0.0
2.185714 1.312500 0.0
2.228571 1.312500 0.0
2.271429 1.312500 0.0
2.314286 1.312500 0.0
2.357143 1.312500 0.0
2.400000 1.312500 0.0
2.442857 1.312500 0.0
2.485714 1.312500 0.0
2.528571 1.312500 0.0
2.571429 1.312500 0.0
2.614286 1.312500 0.0
2.657143 1.312500 0.0
2.700000 1.312500 0.0
2.742857 1.312500 0.0
2.785714 1.312500 0.0
2.828571 1.312500 0.0
2.871429 1.312500 0.0
2.914286 1.312500 0.0
2.957143 1.312500 0.0
3.000000 1.312500 0.0
1.500000 1.356250 0.0
1.542857 1.356250 0.0
1.585714 1.356250 0.0
1.628571 1.356250 0.0
1.671429 1.356250 0.0
1.714286 1.356250 0.0
1.757143 1.356250 0.0
1.800000 1.356250 0.0
1.842857 1.356250 0.0
1.885714 1.356250 0.0
1.928571 1.356250 0.0
1.971429 1.356250 0.0
2.014286 1.356250 0.0
2.057143 1.356250 0.0
2.100000 1.356250 0.0
2.142857 1.356250 0.0
2.185714 1.356250 0.0
2.228571 1.356250 0.0
2.271429 1.356250 0.0
2.314286 1.356250 0.0
2.357143 1.356250 0.0
2.400000 1.356250 0.0
2.442857 1.356250 0.0
2.485714 1.356250 0.0
2.528571 1.356250 0.0
2.571429 1.356250 0.0
2.614286 1.356250 0.0
2.657143 1.356250 0.0
2.700000 1.356250 0.0
2.742857 1.356250 0.0
2.785714 1.356250 0.0
2.828571 1.356250 0.0
2.871429 1.356250 0.0
2.914286 1.356250 0.0
2.957143 1.356250 0.0
3.000000 1.356250 0.0
1.500000 1.400000 0.0
1.542857 1.400000 0.0
1.585714 1.400000 0.0
1.628571 1.400000 0.0
1.671429 1.400000 0.0
1.714286 1.400000 0.0
1.757143 1.400000 0.0
1.800000 1.400000 0.0
1.842857 1.400000 0.0
1.885714 1.400000 0.0
1.928571 1.400000 0.0
1.971429 1.400000 0.0
2.014286 1.400000 0.0
2.057143 1.400000 0.0
2.100000 1.400000 0.0
2.142857 1.400000 0.0
2.185714 1.400000 0.0
2.228571 1.400000 0.0
2.271429 1.400000 0.0
2.314286 1.400000 0.0
2.357143 1.400000 0.0
2.400000 1.400000 0.0
2.442857 1.400000 0.0
2.485714 1.400000 0.0
2.528571 1.400000 0.0
2.571429 1.400000 0.0
2.614286 1.400000 0.0
2.657143 1.400000 0.0
2.700000 1.400000 0.0
2.742857 1.400000 0.0
2.785714 1.400000 0.0
2.828571 1.400000 0.0
2.871429 1.400000 0.0
2.914286 1.400000 0.0
2.957143 1.400000 0.0
3.000000 1.400000 0.0
1.500000 1.443750 0.0
1.542857 1.443750 0.0
1.585714 1.443750 0.0
1.628571 1.443750 0.0
1.671429 1.443750 0.0
1.714286 1.443750 0.0
1.757143 1.443750 0.0
1.800000 1.443750 0.0
1.842857 1.443750 0.0
1.885714 1.443750 0.0
1.928571 1.443750 0.0
1.971429 1.443750 0.0
2.014286 1.443750 0.0
2.057143 1.443750 0.0
2.100000 1.443750 0.0
2.142857 1.443750 0.0
2.185714 1.443750 0.0
2.228571 1.443750 0.0
2.271429 1.443750 0.0
2.314286 1.443750 0.0
2.357143 1.443750 0.0
2.400000 1.443750 0.0
2.442857 1.443750 0.0
2.485714 1.443750 0.0
2.528571 1.443750 0.0
2.571429 1.443750 0.0
2.614286 1.443750 0.0
2.657143 1.443750 0.0
2.700000 1.443750 0.0
2.742857 1.443750 0.0
2.785714 1.443750 0.0
2.828571 1.443750 0.0
2.871429 1.443750 0.0
2.914286 1.443750 0.0
2.957143 1.443750 0.0
3.000000 1.443750 0.0
1.500000 1.487500 0.0
1.542857 1.487500 0.0
1.585714 1.487500 0.0
1.628571 1.487500 0.0
1.671429 1.487500 0.0
1.714286 1.487500 0.0
1.757143 1.487500 0.0
1.800000 1.487500 0.0
1.842857 1.487500 0.0
1.885714 1.487500 0.0
1.928571 1.487500 0.0
1.971429 1.487500 0.0
2.014286 1.487500 0.0
2.057143 1.487500 0.0
2.100000 1.487500 0.0
2.142857 1.487500 0.0
2.185714 1.487500 0.0
2.228571 1.487500 0.0
2.271429 1.487500 0.0
2.314286 1.487500 0.0
2.357143 1.487500 0.0
2.400000 1.487500 0.0
2.442857 1.487500 0.0
2.485714 1.487500 0.0
2.528571 1.487500 0.0
2.571429 1.487500 0.0
2.614286 1.487500 0.0
2.657143 1.487500 0.0
2.700000 1.487500 0.0
2.742857 1.487500 0.0
2.785714 1.487500 0.0
2.828571 1.487500 0.0
2.871429 1.487500 0.0
2.914286 1.487500 0.0
2.957143 1.487500 0.0
3.000000 1.487500 0.0
1.500000 1.531250 0.0
1.542857 1.531250 0.0
1.585714 1.531250 0.0
1.628571 1.531250 0.0
1.671429 1.531250 0.0
1.714286 1.531250 0.0
1.757143 1.531250 0.0
1.800000 1.531250 0.0
1.842857 1.531250 0.0
1.885714 1.531250 0.0
1.928571 1.531250 0.0
1.971429 1.531250 0.0
2.014286 1.531250 0.0
2.057143 1.531250 0.0
2.100000 1.531250 0.0
2.142857 1.531250 0.0
2.185714 1.531250 0.0
2.228571 1.531250 0.0
2.271429 1.531250 0.0
2.314286 1.531250 0.0
2.357143 1.531250 0.0
2.400000 1.531250 0.0
2.442857 1.531250 0.0
2.485714 1.531250 0.0
2.528571 1.531250 0.0
2.571429 1.531250 0.0
2.614286 1.531250 0.0
2.657143 1.531250 0.0
2.700000 1.531250 0.0
2.742857 1.531250 0.0
2.785714 1.531250 0.0
2.828571 1.531250 0.0
2.871429 1.531250 0.0
2.914286 1.531250 0.0
2.957143 1.531250 0.0
3.000000 1.531250 0.0
1.500000 1.575000 0.0
1.542857 1.575000 0.0
1.585714 1.575000 0.0
1.628571 1.575000 0.0
1.671429 1.575000 0.0
1.714286 1.575000 0.0
1.757143 1.575000 0.0
1.800000 1.575000 0.0
1.842857 1.575000 0.0
1.885714 1.575000 0.0
1.928571 1.575000 0.0
1.971429 1.575000 0.0
2.014286 1.575000 0.0
2.057143 1.575000 0.0
2.100000 1.575000 0.0
2.142857 1.575000 0.0
2.185714 1.575000 0.0
2.228571 1.575000 0.0
2.271429 1.575000 0.0
2.314286 1.575000 0.0
2.357143 1.575000 0.0
2.400000 1.575000 0.0
2.442857 1.575000 0.0
2.485714 1.575000 0.0
2.528571 1.575000 0.0
2.571429 1.575000 0.0
2.614286 1.575000 0.0
2.657143 1.575000 0.0
2.700000 1.575000 0.0
2.742857 1.575000 0.0
2.785714 1.575000 0.0
2.828571 1.575000 0.0
2.871429 1.575000 0.0
2.914286 1.575000 0.0
2.957143 1.575000 0.0
3.000000 1.575000 0.0
1.500000 1.618750 0.0
1.542857 1.618750 0.0
1.585714 1.618750 0.0
1.628571 1.618750 0.0
1.671429 1.618750 0.0
1.714286 1.618750 0.0
1.757143 1.618750 0.0
1.800000 1.618750 0.0
1.842857 1.618750 0.0
1.885714 1.618750 0.0
1.928571 1.618750 0.0
1.971429 1.618750 0.0
2.014286 1.618750 0.0
2.057143 1.618750 0.0
2.100000 1.618750 0.0
2.142857 1.618750 0.0
2.185714 1.618750 0.0
2.228571 1.618750 0.0
2.271429 1.618750 0.0
2.314286 1.618750 0.0
2.357143 1.618750 0.0
2.400000 1.618750 0.0
2.442857 1.618750 0.0
2.485714 1.618750 0.0
2.528571 1.618750 0.0
2.571429 1.618750 0.0
2.614286 1.618750 0.0
2.657143 1.618750 0.0
2.700000 1.618750 0.0
2.742857 1.618750 0.0
2.785714 1.618750 0.0
2.828571 1.618750 0.0
2.871429 1.618750 0.0
2.914286 1.618750 0.0
2.957143 1.618750 0.0
3.000000 1.618750 0.0
1.500000 1.662500 0.0
1.542857 1.662500 0.0
1.585714 1.662500 0.0
1.628571 1.662500 0.0
1.671429 1.662500 0.0
1.714286 1.662500 0.0
1.757143 1.662500 0.0
1.800000 1.662500 0.0
1.842857 1.662500 0.0
1.885714 1.662500 0.0
1.928571 1.662500 0.0
1.971429 1.662500 0.0
2.014286 1.662500 0.0
2.057143 1.662500 0.0
2.100000 1.662500 0.0
2.142857 1.662500 0.0
2.185714 1.662500 0.0
2.228571 1.662500 0.0
2.271429 1.662500 0.0
2.314286 1.662500 0.0
2.357143 1.662500 0.0
2.400000 1.662500 0.0
2.442857 1.662500 0.0
2.485714 1.662500 0.0
2.528571 1.662500 0.0
2.571429 1.662500 0.0
2.614286 1.662500 0.0
2.657143 1.662500 0.0
2.700000 1.662500 0.0
2.742857 1.662500 0.0
2.785714 1.662500 0.0
2.828571 1.662500 0.0
2.871429 1.662500 0.0
2.914286 1.662500 0.0
2.957143 1.662500 0.0
3.000000 1.662500 0.0
1.500000 1.706250 0.0
1.542857 1.706250 0.0
1.585714 1.706250 0.0
1.628571 1.706250 0.0
1.671429 1.706250 0.0
1.714286 1.706250 0.0
1.757143 1.706250 0.0
1.800000 1.706250 0.0
1.842857 1.706250 0.0
1.885714 1.706250 0.0
1.928571 1.706250 0.0
1.971429 1.706250 0.0
2.014286 1.706250 0.0
2.057143 1.706250 0.0
2.100000 1.706250 0.0
2.142857 1.706250 0.0
2.185714 1.706250 0.0
2.228571 1.706250 0.0
2.271429 1.706250 0.0
2.314286 1.706250 0.0
2.357143 1.706250 0.0
2.400000 1.706250 0.0
2.442857 1.706250 0.0
2.485714 1.706250 0.0
2.528571 1.706250 0.0
2.571429 1.706250 0.0
2.614286 1.706250 0.0
2.657143 1.706250 0.0
2.700000 1.706250 0.0
2.742857 1.706250 0.0
2.785714 1.706250 0.0
2.828571 1.706250 0.0
2.871429 1.706250 0.0
2.914286 1.706250 0.0
2.957143 1.706250 0.0
3.000000 1.706250 0.0
1.500000 1.750000 0.0
1.542857 1.750000 0.0
1.585714 1.750000 0.0
1.628571 1.750000 0.0
1.671429 1.750000 0.0
1.714286 1.750000 0.0
1.757143 1.750000 0.0
1.800000 1.750000 0.0
1.842857 1.750000 0.0
1.885714 1.750000 0.0
1.928571 1.750000 0.0
1.971429 1.750000 0.0
2.014286 1.750000 0.0
2.057143 1.750000 0.0
2.100000 1.750000 0.0
2.142857 1.750000 0.0
2.185714 1.750000 0.0
2.228571 1.750000 0.0
2.271429 1.750000 0.0
2.314286 1.750000 0.0
2.357143 1.750000 0.0
2.400000 1.750000 0.0
2.442857 1.750000 0.0
2.485714 1.750000 0.0
2.528571 1.750000 0.0
2.571429 1.750000 0.0
2.614286 1.750000 0.0
2.657143 1.750000 0.0
2.700000 1.750000 0.0
2.742857 1.750000 0.0
2.785714 1.750000 0.0
2.828571 1.750000 0.0
2.871429 1.750000 0.0
2.914286 1.750000 0.0
2.957143 1.750000 0.0
3.000000 1.750000 0.0
</DataArray></Points>
<PointData>
<DataArray NumberOfComponents="1" format="ascii" type ="Float32" Name="phi">
1.195615
1.184710
1.167113
1.150928
1.136093
1.122443
1.109946
1.098690
1.088843
1.080565
1.073993
1.069181
1.066080
1.064643
1.064846
1.066682
1.070160
1.075294
1.082094
1.090586
1.100770
1.112604
1.126019
1.140948
1.157321
1.175077
1.194189
1.214605
1.236168
1.258636
1.281765
1.305416
1.329556
1.354227
1.379671
1.384333
1.156096
1.145000
1.127164
1.110619
1.095241
1.080992
1.067920
1.056170
1.045943
1.037396
1.030619
1.025623
1.022388
1.020891
1.021104
1.023018
1.026650
1.031993
1.039030
1.047798
1.058321
1.070574
1.084478
1.099965
1.116974
1.135437
1.155264
1.176303
1.198425
1.221529
1.245500
1.270148
1.295288
1.320865
1.346907
1.360052
1.117131
1.105963
1.087634
1.070456
1.054405
1.039504
1.025858
1.013661
1.003132
0.994363
0.987337
0.982091
0.978695
0.977135
0.977360
0.979362
0.983174
0.988778
0.996103
1.005161
1.016013
1.028704
1.043111
1.059097
1.076668
1.095806
1.116428
1.138356
1.161323
1.185135
1.209766
1.235187
1.261262
1.287821
1.314771
1.328340
1.078573
1.067323
1.048274
1.030351
1.013568
0.998004
0.983846
0.971338
0.960581
0.951509
0.944119
0.938573
0.935006
0.933376
0.933613
0.935711
0.939712
0.945622
0.953331
0.962775
0.974009
0.987184
1.002205
1.018763
1.036767
1.056343
1.077601
1.100397
1.124388
1.149250
1.174778
1.200928
1.227723
1.255140
1.283038
1.297076
1.040284
1.028897
1.009028
0.990298
0.972768
0.956633
0.942148
0.929399
0.918278
0.908730
0.900905
0.895061
0.891322
0.889614
0.889864
0.892064
0.896257
0.902487
0.910647
0.920598
0.932333
0.946025
0.961731
0.979091
0.997745
1.017710
1.039223
1.062511
1.087397
1.113393
1.140125
1.167343
1.194978
1.223129
1.251805
1.266258
1.002275
0.990666
0.969907
0.950359
0.932212
0.915713
0.900935
0.887741
0.876041
0.865937
0.857683
0.851556
0.847644
0.845853
0.846117
0.848426
0.852816
0.859363
0.868003
0.878540
0.890882
0.905130
0.921472
0.939718
0.959378
0.980153
1.002057
1.025423
1.050626
1.077505
1.105446
1.133950
1.162784
1.191911
1.221381
1.236211
0.964577
0.952681
0.931024
0.910798
0.892238
0.875348
0.860015
0.846145
0.833782
0.823121
0.814462
0.808064
0.803973
0.802094
0.802374
0.804801
0.809404
0.816263
0.825386
0.836569
0.849612
0.864495
0.881422
0.900450
0.921170
0.943098
0.965991
0.989837
1.015028
1.042043
1.070773
1.100528
1.130700
1.161104
1.191696
1.207031
0.927223
0.915161
0.892741
0.871950
0.852867
0.835299
0.819187
0.804549
0.791503
0.780311
0.771284
0.764610
0.760311
0.758338
0.758640
0.761203
0.766056
0.773240
0.782819
0.794678
0.808511
0.824150
0.841682
0.861349
0.883022
0.906157
0.930309
0.955285
0.981079
1.008050
1.036751
1.067199
1.098636
1.130404
1.162311
1.178280
0.890329
0.878441
0.855283
0.833757
0.813858
0.795409
0.778414
0.762957
0.749258
0.737626
0.728264
0.721237
0.716664
0.714586
0.714917
0.717639
0.722820
0.730422
0.740426
0.752899
0.767578
0.784127
0.802445
0.822684
0.845060
0.869294
0.894765
0.921074
0.948072
0.975761
1.004449
1.034754
1.066790
1.099796
1.133042
1.149675
0.853881
0.842506
0.818473
0.795981
0.775103
0.755665
0.737724
0.721484
0.707273
0.695273
0.685463
0.677947
0.673041
0.670837
0.671202
0.674108
0.679669
0.687852
0.698422
0.711416
0.726853
0.744427
0.763816
0.784876
0.807772
0.832721
0.859373
0.887070
0.915440
0.944371
0.973870
1.004207
1.036028
1.069540
1.103932
1.121193
0.817709
0.807093
0.782147
0.758574
0.736620
0.716133
0.697300
0.680456
0.665796
0.653248
0.642781
0.634698
0.629442
0.627095
0.627495
0.630606
0.636551
0.645399
0.656816
0.670505
0.686570
0.705076
0.725700
0.747980
0.771719
0.797123
0.824443
0.853329
0.883111
0.913422
0.944171
0.975370
1.007265
1.040535
1.075288
1.092950
0.781672
0.772062
0.746311
0.721638
0.698564
0.677079
0.657497
0.640067
0.624718
0.611363
0.600136
0.591478
0.585866
0.583360
0.583796
0.587134
0.593465
0.602961
0.615384
0.630151
0.647055
0.666328
0.688045
0.711708
0.736773
0.763056
0.790797
0.820271
0.851178
0.882881
0.914988
0.947418
0.980188
1.013566
1.048066
1.065664
0.745640
0.737313
0.711069
0.685462
0.661300
0.638847
0.618435
0.600139
0.583830
0.569544
0.557530
0.548300
0.542313
0.539633
0.540110
0.543704
0.550459
0.560563
0.573983
0.590085
0.608282
0.628509
0.651086
0.675972
0.702513
0.730185
0.758853
0.788742
0.820151
0.852879
0.886319
0.920060
0.954021
0.988256
1.022957
1.040460
0.709351
0.702667
0.676403
0.650140
0.624946
0.601422
0.579935
0.560516
0.543098
0.527815
0.515026
0.505216
0.498799
0.495916
0.496444
0.500347
0.507650
0.518373
0.532669
0.550159
0.569972
0.591629
0.615197
0.641011
0.668873
0.698061
0.728126
0.758982
0.790827
0.823977
0.858327
0.893307
0.928509
0.963881
0.999217
1.016822
0.672413
0.667868
0.642164
0.615417
0.589301
0.564635
0.541912
0.521213
0.502589
0.486318
0.472795
0.462333
0.455351
0.452209
0.452801
0.457079
0.465148
0.476764
0.491836
0.510482
0.532009
0.555473
0.580516
0.607300
0.636123
0.666668
0.698233
0.730455
0.763283
0.796885
0.831589
0.867357
0.903698
0.940170
0.975615
0.992830
0.634196
0.632260
0.608160
0.581088
0.554287
0.528543
0.504495
0.482418
0.462582
0.445374
0.431010
0.419663
0.411968
0.408517
0.409181
0.413890
0.422891
0.435837
0.452065
0.471632
0.494549
0.519929
0.546862
0.575096
0.604834
0.636316
0.669197
0.702852
0.736982
0.771550
0.806713
0.842819
0.879840
0.917022
0.949786
0.964050
0.594488
0.595350
0.574147
0.547046
0.519898
0.493329
0.468035
0.444582
0.423499
0.405159
0.389609
0.377122
0.368636
0.364842
0.365585
0.370788
0.380773
0.395306
0.413367
0.434312
0.458288
0.485200
0.514107
0.544203
0.575310
0.607629
0.641368
0.676233
0.711690
0.747470
0.783570
0.820199
0.857449
0.893938
0.919238
0.926810
0.554127
0.557746
0.539963
0.513222
0.486018
0.458959
0.432656
0.407896
0.385389
0.365531
0.348461
0.334694
0.325361
0.321185
0.322020
0.327824
0.338866
0.355054
0.375345
0.398466
0.423956
0.452015
0.482477
0.514461
0.547300
0.580866
0.615347
0.650962
0.687490
0.724467
0.761714
0.799197
0.836473
0.868636
0.883261
0.884214
0.513689
0.519672
0.505202
0.479472
0.452438
0.425115
0.398086
0.372130
0.348050
0.326398
0.307618
0.292478
0.282192
0.277550
0.278500
0.285119
0.297489
0.315384
0.337961
0.363686
0.391454
0.421035
0.452644
0.486089
0.520617
0.555714
0.591297
0.627557
0.664726
0.702653
0.741000
0.779284
0.815119
0.838110
0.842411
0.840520
0.473142
0.480632
0.469188
0.445362
0.418879
0.391517
0.364063
0.337142
0.311503
0.287956
0.267392
0.250745
0.239247
0.233952
0.235048
0.242832
0.257171
0.277144
0.301860
0.330074
0.360418
0.392124
0.425123
0.459626
0.495453
0.531997
0.568899
0.606119
0.643870
0.682443
0.721531
0.759525
0.789340
0.801136
0.799167
0.796792
0.432513
0.440510
0.431417
0.410277
0.385070
0.358018
0.330423
0.302889
0.275991
0.250720
0.228316
0.209835
0.196650
0.190407
0.191696
0.201045
0.218167
0.241083
0.268201
0.298513
0.331074
0.364988
0.399770
0.435441
0.472209
0.509891
0.548024
0.586396
0.625052
0.664143
0.703048
0.736627
0.755713
0.759271
0.755605
0.764024
</DataArray>
<DataArray NumberOfComponents="1" format="ascii" type ="Float32" Name="u">
0.000307
-0.000477
-0.001268
-0.002114
-0.003054
-0.004124
-0.005345
-0.006728
-0.008270
-0.009950
-0.011734
-0.013566
-0.015373
-0.017065
-0.018541
-0.019710
-0.020502
-0.020897
-0.020930
-0.020684
-0.020269
-0.019785
-0.019309
-0.018884
-0.018529
-0.018245
-0.018027
-0.017864
-0.017747
-0.017667
-0.017616
-0.017586
-0.017571
-0.017566
-0.017564
-0.017564
0.000388
-0.000501
-0.001403
-0.002369
-0.003444
-0.004663
-0.006049
-0.007607
-0.009328
-0.011183
-0.013123
-0.015079
-0.016960
-0.018661
-0.020073
-0.021101
-0.021691
-0.021848
-0.021641
-0.021185
-0.020604
-0.020004
-0.019451
-0.018979
-0.018596
-0.018295
-0.018065
-0.017895
-0.017773
-0.017690
-0.017636
-0.017605
-0.017589
-0.017583
-0.017582
-0.017582
0.000454
-0.000568
-0.001610
-0.002725
-0.003962
-0.005357
-0.006929
-0.008679
-0.010589
-0.012618
-0.014703
-0.016758
-0.018676
-0.020339
-0.021632
-0.022468
-0.022812
-0.022705
-0.022251
-0.021592
-0.020864
-0.020165
-0.019553
-0.019045
-0.018640
-0.018325
-0.018086
-0.017909
-0.017782
-0.017694
-0.017637
-0.017603
-0.017587
-0.017580
-0.017578
-0.017578
0.000493
-0.000694
-0.001906
-0.003201
-0.004629
-0.006223
-0.008000
-0.009954
-0.012054
-0.014247
-0.016455
-0.018574
-0.020485
-0.022058
-0.023179
-0.023774
-0.023841
-0.023456
-0.022760
-0.021916
-0.021061
-0.020283
-0.019624
-0.019088
-0.018666
-0.018339
-0.018090
-0.017905
-0.017771
-0.017677
-0.017616
-0.017580
-0.017562
-0.017554
-0.017552
-0.017552
0.000493
-0.000892
-0.002309
-0.003815
-0.005459
-0.007274
-0.009269
-0.011429
-0.013712
-0.016051
-0.018352
-0.020495
-0.022348
-0.023778
-0.024677
-0.024995
-0.024764
-0.024101
-0.023179
-0.022173
-0.021212
-0.020372
-0.019675
-0.019116
-0.018678
-0.018338
-0.018078
-0.017884
-0.017741
-0.017641
-0.017574
-0.017534
-0.017513
-0.017505
-0.017502
-0.017502
0.000448
-0.001171
-0.002827
-0.004574
-0.006459
-0.008511
-0.010731
-0.013095
-0.015547
-0.018006
-0.020362
-0.022484
-0.024229
-0.025466
-0.026103
-0.026117
-0.025582
-0.024654
-0.023529
-0.022383
-0.021337
-0.020444
-0.019715
-0.019135
-0.018679
-0.018324
-0.018051
-0.017844
-0.017691
-0.017582
-0.017510
-0.017465
-0.017441
-0.017431
-0.017428
-0.017428
0.000362
-0.001528
-0.003457
-0.005475
-0.007625
-0.009926
-0.012374
-0.014933
-0.017535
-0.020084
-0.022455
-0.024508
-0.026097
-0.027098
-0.027442
-0.027141
-0.026310
-0.025138
-0.023834
-0.022571
-0.021451
-0.020513
-0.019753
-0.019149
-0.018672
-0.018299
-0.018009
-0.017787
-0.017621
-0.017502
-0.017421
-0.017371
-0.017344
-0.017332
-0.017329
-0.017329
0.000254
-0.001946
-0.004184
-0.006503
-0.008938
-0.011501
-0.014177
-0.016920
-0.019650
-0.022255
-0.024601
-0.026539
-0.027928
-0.028660
-0.028693
-0.028080
-0.026972
-0.025581
-0.024122
-0.022757
-0.021571
-0.020588
-0.019795
-0.019162
-0.018660
-0.018263
-0.017952
-0.017712
-0.017530
-0.017398
-0.017308
-0.017252
-0.017221
-0.017207
-0.017202
-0.017202
0.000152
-0.002393
-0.004975
-0.007626
-0.010368
-0.013205
-0.016111
-0.019028
-0.021863
-0.024491
-0.026771
-0.028552
-0.029705
-0.030145
-0.029866
-0.028957
-0.027598
-0.026015
-0.024421
-0.022963
-0.021712
-0.020680
-0.019846
-0.019178
-0.018644
-0.018218
-0.017880
-0.017617
-0.017417
-0.017270
-0.017169
-0.017104
-0.017068
-0.017052
-0.017047
-0.017047
0.000102
-0.002823
-0.005784
-0.008799
-0.011874
-0.015001
-0.018142
-0.021224
-0.024142
-0.026761
-0.028935
-0.030521
-0.031412
-0.031554
-0.030978
-0.029802
-0.028224
-0.026474
-0.024757
-0.023208
-0.021887
-0.020797
-0.019913
-0.019200
-0.018625
-0.018162
-0.017793
-0.017503
-0.017280
-0.017115
-0.017000
-0.016927
-0.016885
-0.016866
-0.016860
-0.016860
0.000151
-0.003181
-0.006555
-0.009966
-0.013403
-0.016841
-0.020225
-0.023466
-0.026445
-0.029021
-0.031051
-0.032414
-0.033032
-0.032891
-0.032051
-0.030650
-0.028888
-0.026991
-0.025156
-0.023510
-0.022108
-0.020947
-0.020000
-0.019230
-0.018605
-0.018099
-0.017691
-0.017368
-0.017118
-0.016931
-0.016800
-0.016716
-0.016667
-0.016645
-0.016637
-0.016637
0.000341
-0.003414
-0.007227
-0.011066
-0.014897
-0.018669
-0.022303
-0.025692
-0.028705
-0.031200
-0.033055
-0.034180
-0.034540
-0.034156
-0.033108
-0.031533
-0.029624
-0.027596
-0.025641
-0.023887
-0.022386
-0.021139
-0.020114
-0.019274
-0.018588
-0.018027
-0.017573
-0.017211
-0.016928
-0.016717
-0.016567
-0.016468
-0.016412
-0.016385
-0.016376
-0.016376
0.000696
-0.003487
-0.007753
-0.012045
-0.016294
-0.020414
-0.024296
-0.027810
-0.030817
-0.033193
-0.034849
-0.035747
-0.035894
-0.035337
-0.034157
-0.032475
-0.030460
-0.028314
-0.026233
-0.024353
-0.022735
-0.021381
-0.020261
-0.019337
-0.018576
-0.017951
-0.017441
-0.017032
-0.016711
-0.016468
-0.016295
-0.016181
-0.016114
-0.016082
-0.016071
-0.016071
0.001199
-0.003396
-0.008115
-0.012867
-0.017538
-0.021996
-0.026094
-0.029681
-0.032628
-0.034846
-0.036302
-0.037013
-0.037025
-0.036394
-0.035182
-0.033474
-0.031404
-0.029161
-0.026949
-0.024925
-0.023167
-0.021684
-0.020449
-0.019424
-0.018574
-0.017871
-0.017295
-0.016830
-0.016463
-0.016184
-0.015983
-0.015849
-0.015770
-0.015731
-0.015718
-0.015718
0.001782
-0.003195
-0.008340
-0.013523
-0.018576
-0.023312
-0.027545
-0.031120
-0.033938
-0.035973
-0.037255
-0.037853
-0.037833
-0.037244
-0.036113
-0.034478
-0.032427
-0.030127
-0.027793
-0.025613
-0.023694
-0.022060
-0.020689
-0.019543
-0.018587
-0.017792
-0.017138
-0.016606
-0.016184
-0.015861
-0.015626
-0.015468
-0.015373
-0.015327
-0.015311
-0.015311
0.002307
-0.002999
-0.008507
-0.014034
-0.019353
-0.024228
-0.028453
-0.031900
-0.034529
-0.036382
-0.037550
-0.038129
-0.038189
-0.037756
-0.036821
-0.035366
-0.033427
-0.031143
-0.028733
-0.026413
-0.024324
-0.022518
-0.020988
-0.019700
-0.018619
-0.017716
-0.016969
-0.016359
-0.015872
-0.015496
-0.015220
-0.015033
-0.014919
-0.014862
-0.014843
-0.014843
0.002573
-0.002979
-0.008720
-0.014410
-0.019774
-0.024560
-0.028591
-0.031798
-0.034210
-0.035925
-0.037063
-0.037723
-0.037962
-0.037781
-0.037130
-0.035944
-0.034214
-0.032049
-0.029660
-0.027268
-0.025037
-0.023058
-0.021351
-0.019899
-0.018674
-0.017645
-0.016789
-0.016086
-0.015523
-0.015085
-0.014760
-0.014537
-0.014399