<VTKFile type="StructuredGrid" version="0.1" byte_order="LittleEndian">
<StructuredGrid WholeExtent="1 71 1 81 0 0">
<Piece Extent="36 71 61 81 0 0">
<PointData></PointData>
<CellData></CellData>
<Points>
<DataArray NumberOfComponents="3" format="ascii" type ="Float32" Name="mesh">
1.500000 2.625000 0.0
1.542857 2.625000 0.0
1.585714 2.625000 0.0
1.628571 2.625000 0.0
1.671429 2.625000 0.0
1.714286 2.625000 0.0
1.757143 2.625000 0.0
1.800000 2.625000 0.0
1.842857 2.625000 0.0
1.885714 2.625000 0.0
1.928571 2.625000 0.0
1.971429 2.625000 0.0
2.014286 2.625000 0.0
2.057143 2.625000 0.0
2.100000 2.625000 0.0
2.142857 2.625000 0.0
2.185714 2.625000 0.0
2.228571 2.625000 0.0
2.271429 2.625000 0.0
2.314286 2.625000 0.0
2.357143 2.625000 0.0
2.400000 2.625000 0.0
2.442857 2.625000 0.0
2.485714 2.625000 0.0
2.528571 2.625000 0.0
2.571429 2.625000 0.0
2.614286 2.625000 0.0
2.657143 2.625000 0.0
2.700000 2.625000 0.0
2.742857 2.625000 0.0
2.785714 2.625000 0.0
2.828571 2.625000 0.0
2.871429 2.625000 0.0
2.914286 2.625000 0.0
2.957143 2.625000 0.0
3.000000 2.625000 0.0
1.500000 2.668750 0.0
1.542857 2.668750 0.0
1.585714 2.668750 0.0
1.628571 2.668750 0.0
1.671429 2.668750 0.0
1.714286 2.668750 0.0
1.757143 2.668750 0.0
1.800000 2.668750 0.0
1.842857 2.668750 0.0
1.885714 2.668750 0.0
1.928571 2.668750 0.0
1.971429 2.668750 0.0
2.014286 2.668750 0.0
2.057143 2.668750 0.0
2.100000 2.668750 0.0
2.142857 2.668750 0.0
2.185714 2.668750 0.0
2.228571 2.668750 0.0
2.271429 2.668750 0.0
2.314286 2.668750 0.0
2.357143 2.668750 0.0
2.400000 2.668750 0.0
2.442857 2.668750 0.0
2.485714 2.668750 0.0
2.528571 2.668750 0.0
2.571429 2.668750 0.0
2.614286 2.668750 0.0
2.657143 2.668750 0.0
2.700000 2.668750 0.0
2.742857 2.668750 0.0
2.785714 2.668750 0.0
2.828571 2.668750 0.0
2.871429 2.668750 0.0
2.914286 2.668750 0.0
2.957143 2.668750 0.0
3.000000 2.668750 0.0
1.500000 2.712500 0.0
1.542857 2.712500 0.0
1.585714 2.712500 0.0
1.628571 2.712500 0.0
1.671429 2.712500 0.0
1.714286 2.712500 0.0
1.757143 2.712500 0.0
1.800000 2.712500 0.0
1.842857 2.712500 0.0
1.885714 2.712500 0.0
1.928571 2.712500 0.0
1.971429 2.712500 0.0
2.014286 2.712500 0.0
2.057143 2.712500 0.0
2.100000 2.712500 0.0
2.142857 2.712500 0.0
2.185714 2.712500 0.0
2.228571 2.712500 0.0
2.271429 2.712500 0.0
2.314286 2.712500 0.0
2.357143 2.712500 0.0
2.400000 2.712500 0.0
2.442857 2.712500 0.0
2.485714 2.712500 0.0
2.528571 2.712500 0.0
2.571429 2.712500 0.0
2.614286 2.712500 0.0
2.657143 2.712500 0.0
2.700000 2.712500 0.0
2.742857 2.712500 0.0
2.785714 2.712500 0.0
2.828571 2.712500 0.0
2.871429 2.712500 0.0
2.914286 2.712500 0.0
2.957143 2.712500 0.0
3.000000 2.712500 0.0
1.500000 2.756250 0.0
1.542857 2.756250 0.0
1.585714 2.756250 0.0
1.628571 2.756250 0.0
1.671429 2.756250 0.0
1.714286 2.756250 0.0
1.757143 2.756250 0.0
1.800000 2.756250 0.0
1.842857 2.756250 0.0
1.885714 2.756250 0.0
1.928571 2.756250 0.0
1.971429 2.756250 0.0
2.014286 2.756250 0.0
2.057143 2.756250 0.0
2.100000 2.756250 0.0
2.142857 2.756250 0.0
2.185714 2.756250 0.0
2.228571 2.756250 0.0
2.271429 2.756250 0.0
2.314286 2.756250 0.0
2.357143 2.756250 0.0
2.400000 2.756250 0.0
2.442857 2.756250 0.0
2.485714 2.756250 0.0
2.528571 2.756250 0.0
2.571429 2.756250 0.0
2.614286 2.756250 0.0
2.657143 2.756250 0.0
2.700000 2.756250 0.0
2.742857 2.756250 0.0
2.785714 2.756250 0.0
2.828571 2.756250 0.0
2.871429 2.756250 0.0
2.914286 2.756250 0.0
2.957143 2.756250 0.0
3.000000 2.756250 0.0
1.500000 2.800000 0.0
1.542857 2.800000 0.0
1.585714 2.800000 0.0
1.628571 2.800000 0.0
1.671429 2.800000 0.0
1.714286 2.800000 0.0
1.757143 2.800000 0.0
1.800000 2.800000 0.0
1.842857 2.800000 0.0
1.885714 2.800000 0.0
1.928571 2.800000 0.0
1.971429 2.800000 0.0
2.014286 2.800000 0.0
2.057143 2.800000 0.0
2.100000 2.800000 0.0
2.142857 2.800000 0.0
2.185714 2.800000 0.0
2.228571 2.800000 0.0
2.271429 2.800000 0.0
2.314286 2.800000 0.0
2.357143 2.800000 0.0
2.400000 2.800000 0.0
2.442857 2.800000 0.0
2.485714 2.800000 0.0
2.528571 2.800000 0.0
2.571429 2.800000 0.0
2.614286 2.800000 0.0
2.657143 2.800000 0.0
2.700000 2.800000 0.0
2.742857 2.800000 0.0
2.785714 2.800000 0.0
2.828571 2.800000 0.0
2.871429 2.800000 0.0
2.914286 2.800000 0.0
2.957143 2.800000 0.0
3.000000 2.800000 0.0
1.500000 2.843750 0.0
1.542857 2.843750 0.0
1.585714 2.843750 0.0
1.628571 2.843750 0.0
1.671429 2.843750 0.0
1.714286 2.843750 0.0
1.757143 2.843750 0.0
1.800000 2.843750 0.0
1.842857 2.843750 0.0
1.885714 2.843750 0.0
1.928571 2.843750 0.0
1.971429 2.843750 0.0
2.014286 2.843750 0.0
2.057143 2.843750 0.0
2.100000 2.843750 0.0
2.142857 2.843750 0.0
2.185714 2.843750 0.0
2.228571 2.843750 0.0
2.271429 2.843750 0.0
2.314286 2.843750 0.0
2.357143 2.843750 0.0
2.400000 2.843750 0.0
2.442857 2.843750 0.0
2.485714 2.843750 0.0
2.528571 2.843750 0.0
2.571429 2.843750 0.0
2.614286 2.843750 0.0
2.657143 2.843750 0.0
2.700000 2.843750 0.0
2.742857 2.843750 0.0
2.785714 2.843750 0.0
2.828571 2.843750 0.0
2.871429 2.843750 0.0
2.914286 2.843750 0.0
2.957143 2.843750 0.0
3.000000 2.843750 0.0
1.500000 2.887500 0.0
1.542857 2.887500 0.0
1.585714 2.887500 0.0
1.628571 2.887500 0.0
1.671429 2.887500 0.0
1.714286 2.887500 0.0
1.757143 2.887500 0.0
1.800000 2.887500 0.0
1.842857 2.887500 0.0
1.885714 2.887500 0.0
1.928571 2.887500 0.0
1.971429 2.887500 0.0
2.014286 2.887500 0.0
2.057143 2.887500 0.0
2.100000 2.887500 0.0
2.142857 2.887500 0.0
2.185714 2.887500 0.0
2.228571 2.887500 0.0
2.271429 2.887500 0.0
2.314286 2.887500 0.0
2.357143 2.887500 0.0
2.400000 2.887500 0.0
2.442857 2.887500 0.0
2.485714 2.887500 0.0
2.528571 2.887500 0.0
2.571429 2.887500 0.0
2.614286 2.887500 0.0
2.657143 2.887500 0.0
2.700000 2.887500 0.0
2.742857 2.887500 0.0
2.785714 2.887500 0.0
2.828571 2.887500 0.0
2.871429 2.887500 0.0
2.914286 2.887500 0.0
2.957143 2.887500 0.0
3.000000 2.887500 0.0
1.500000 2.931250 0.0
1.542857 2.931250 0.0
1.585714 2.931250 0.0
1.628571 2.931250 0.0
1.671429 2.931250 0.0
1.714286 2.931250 0.0
1.757143 2.931250 0.0
1.800000 2.931250 0.0
1.842857 2.931250 0.0
1.885714 2.931250 0.0
1.928571 2.931250 0.0
1.971429 2.931250 0.0
2.014286 2.931250 0.0
2.057143 2.931250 0.0
2.100000 2.931250 0.0
2.142857 2.931250 0.0
2.185714 2.931250 0.0
2.228571 2.931250 0.0
2.271429 2.931250 0.0
2.314286 2.931250 0.0
2.357143 2.931250 0.0
2.400000 2.931250 0.0
2.442857 2.931250 0.0
2.485714 2.931250 0.0
2.528571 2.931250 0.0
2.571429 2.931250 0.0
2.614286 2.931250 0.0
2.657143 2.931250 0.0
2.700000 2.931250 0.0
2.742857 2.931250 0.0
2.785714 2.931250 0.0
2.828571 2.931250 0.0
2.871429 2.931250 0.0
2.914286 2.931250 0.0
2.957143 2.931250 0.0
3.000000 2.931250 0.0
1.500000 2.975000 0.0
1.542857 2.975000 0.0
1.585714 2.975000 0.0
1.628571 2.975000 0.0
1.671429 2.975000 0.0
1.714286 2.975000 0.0
1.757143 2.975000 0.0
1.800000 2.975000 0.0
1.842857 2.975000 0.0
1.885714 2.975000 0.0
1.928571 2.975000 0.0
1.971429 2.975000 0.0
2.014286 2.975000 0.0
2.057143 2.975000 0.0
2.100000 2.975000 0.0
2.142857 2.975000 0.0
2.185714 2.975000 0.0
2.228571 2.975000 0.0
2.271429 2.975000 0.0
2.314286 2.975000 0.0
2.357143 2.975000 0.0
2.400000 2.975000 0.0
2.442857 2.975000 0.0
2.485714 2.975000 0.0
2.528571 2.975000 0.0
2.571429 2.975000 0.0
2.614286 2.975000 0.0
2.657143 2.975000 0.0
2.700000 2.975000 0.0
2.742857 2.975000 0.0
2.785714 2.975000 0.0
2.828571 2.975000 0.0
2.871429 2.975000 0.0
2.914286 2.975000 0.0
2.957143 2.975000 0.0
3.000000 2.975000 0.0
1.500000 3.018750 0.0
1.542857 3.018750 0.0
1.585714 3.018750 0.0
1.628571 3.018750 0.0
1.671429 3.018750 0.0
1.714286 3.018750 0.0
1.757143 3.018750 0.0
1.800000 3.018750 0.0
1.842857 3.018750 0.0
1.885714 3.018750 0.0
1.928571 3.018750 0.0
1.971429 3.018750 0.0
2.014286 3.018750 0.0
2.057143 3.018750 0.0
2.100000 3.018750 0.0
2.142857 3.018750 0.0
2.185714 3.018750 0.0
2.228571 3.018750 0.0
2.271429 3.018750 0.0
2.314286 3.018750 0.0
2.357143 3.018750 0.0
2.400000 3.018750 0.0
2.442857 3.018750 0.0
2.485714 3.018750 0.0
2.528571 3.018750 0.0
2.571429 3.018750 0.0
2.614286 3.018750 0.0
2.657143 3.018750 0.0
2.700000 3.018750 0.0
2.742857 3.018750 0.0
2.785714 3.018750 0.0
2.828571 3.018750 0.0
2.871429 3.018750 0.0
2.914286 3.018750 0.0
2.957143 3.018750 0.0
3.000000 3.018750 0.0
1.500000 3.062500 0.0
1.542857 3.062500 0.0
1.585714 3.062500 0.0
1.628571 3.062500 0.0
1.671429 3.062500 0.0
1.714286 3.062500 0.0
1.757143 3.062500 0.0
1.800000 3.062500 0.0
1.842857 3.062500 0.0
1.885714 3.062500 0.0
1.928571 3.062500 0.0
1.971429 3.062500 0.0
2.014286 3.062500 0.0
2.057143 3.062500 0.0
2.100000 3.062500 0.0
2.142857 3.062500 0.0
2.185714 3.062500 0.0
2.228571 3.062500 0.0
2.271429 3.062500 0.0
2.314286 3.062500 0.0
2.357143 3.062500 0.0
2.400000 3.062500 0.0
2.442857 3.062500 0.0
2.485714 3.062500 0.0
2.528571 3.062500 0.0
2.571429 3.062500 0.0
2.614286 3.062500 0.0
2.657143 3.062500 0.0
2.700000 3.062500 0.0
2.742857 3.062500 0.0
2.785714 3.062500 0.0
2.828571 3.062500 0.0
2.871429 3.062500 0.0
2.914286 3.062500 0.0
2.957143 3.062500 0.0
3.000000 3.062500 0.0
1.500000 3.106250 0.0
1.542857 3.106250 0.0
1.585714 3.106250 0.0
1.628571 3.106250 0.0
1.671429 3.106250 0.0
1.714286 3.106250 0.0
1.757143 3.106250 0.0
1.800000 3.106250 0.0
1.842857 3.106250 0.0
1.885714 3.106250 0.0
1.928571 3.106250 0.0
1.971429 3.106250 0.0
2.014286 3.106250 0.0
2.057143 3.106250 0.0
2.100000 3.106250 0.0
2.142857 3.106250 0.0
2.185714 3.106250 0.0
2.228571 3.106250 0.0
2.271429 3.106250 0.0
2.314286 3.106250 0.0
2.357143 3.106250 0.0
2.400000 3.106250 0.0
2.442857 3.106250 0.0
2.485714 3.106250 0.0
2.528571 3.106250 0.0
2.571429 3.106250 0.0
2.614286 3.106250 0.0
2.657143 3.106250 0.0
2.700000 3.106250 0.0
2.742857 3.106250 0.0
2.785714 3.106250 0.0
2.828571 3.106250 0.0
2.871429 3.106250 0.0
2.914286 3.106250 0.0
2.957143 3.106250 0.0
3.000000 3.106250 0.0
1.500000 3.150000 0.0
1.542857 3.150000 0.0
1.585714 3.150000 0.0
1.628571 3.150000 0.0
1.671429 3.150000 0.0
1.714286 3.150000 0.0
1.757143 3.150000 0.0
1.800000 3.150000 0.0
1.842857 3.150000 0.0
1.885714 3.150000 0.0
1.928571 3.150000 0.0
1.971429 3.150000 0.0
2.014286 3.150000 0.0
2.057143 3.150000 0.0
2.100000 3.150000 0.0
2.142857 3.150000 0.0
2.185714 3.150000 0.0
2.228571 3.150000 0.0
2.271429 3.150000 0.0
2.314286 3.150000 0.0
2.357143 3.150000 0.0
2.400000 3.150000 0.0
2.442857 3.150000 0.0
2.485714 3.150000 0.0
2.528571 3.150000 0.0
2.571429 3.150000 0.0
2.614286 3.150000 0.0
2.657143 3.150000 0.0
2.700000 3.150000 0.0
2.742857 3.150000 0.0
2.785714 3.150000 0.0
2.828571 3.150000 0.0
2.871429 3.150000 0.0
2.914286 3.150000 0.0
2.957143 3.150000 0.0
3.000000 3.150000 0.0
1.500000 3.193750 0.0
1.542857 3.193750 0.0
1.585714 3.193750 0.0
1.628571 3.193750 0.0
1.671429 3.193750 0.0
1.714286 3.193750 0.0
1.757143 3.193750 0.0
1.800000 3.193750 0.0
1.842857 3.193750 0.0
1.885714 3.193750 0.0
1.928571 3.193750 0.0
1.971429 3.193750 0.0
2.014286 3.193750 0.0
2.057143 3.193750 0.0
2.100000 3.193750 0.0
2.142857 3.193750 0.0
2.185714 3.193750 0.0
2.228571 3.193750 0.0
2.271429 3.193750 0.0
2.314286 3.193750 0.0
2.357143 3.193750 0.0
2.400000 3.193750 0.0
2.442857 3.193750 0.0
2.485714 3.193750 0.0
2.528571 3.193750 0.0
2.571429 3.193750 0.0
2.614286 3.193750 0.0
2.657143 3.193750 0.0
2.700000 3.193750 0.0
2.742857 3.193750 0.0
2.785714 3.193750 0.0
2.828571 3.193750 0.0
2.871429 3.193750 0.0
2.914286 3.193750 0.0
2.957143 3.193750 0.0
3.000000 3.193750 0.0
1.500000 3.237500 0.0
1.542857 3.237500 0.0
1.585714 3.237500 0.0
1.628571 3.237500 0.0
1.671429 3.237500 0.0
1.714286 3.237500 0.0
1.757143 3.237500 0.0
1.800000 3.237500 0.0
1.842857 3.237500 0.0
1.885714 3.237500 0.0
1.928571 3.237500 0.0
1.971429 3.237500 0.0
2.014286 3.237500 0.0
2.057143 3.237500 0.0
2.100000 3.237500 0.0
2.142857 3.237500 0.0
2.185714 3.237500 0.0
2.228571 3.237500 0.0
2.271429 3.237500 0.0
2.314286 3.237500 0.0
2.357143 3.237500 0.0
2.400000 3.237500 0.0
2.442857 3.237500 0.0
2.485714 3.237500 0.0
2.528571 3.237500 0.0
2.571429 3.237500 0.0
2.614286 3.237500 0.0
2.657143 3.237500 0.0
2.700000 3.237500 0.0
2.742857 3.237500 0.0
2.785714 3.237500 0.0
2.828571 3.237500 0.0
2.871429 3.237500 0.0
2.914286 3.237500 0.0
2.957143 3.237500 0.0
3.000000 3.237500 0.0
1.500000 3.281250 0.0
1.542857 3.281250 0.0
1.585714 3.281250 0.0
1.628571 3.281250 0.0
1.671429 3.281250 0.0
1.714286 3.281250 0.0
1.757143 3.281250 0.0
1.800000 3.281250 0.0
1.842857 3.281250 0.0
1.885714 3.281250 0.0
1.928571 3.281250 0.0
1.971429 3.281250 0.0
2.014286 3.281250 0.0
2.057143 3.281250 0.0
2.100000 3.281250 0.0
2.142857 3.281250 0.0
2.185714 3.281250 0.0
2.228571 3.281250 0.0
2.271429 3.281250 0.0
2.314286 3.281250 0.0
2.357143 3.281250 0.0
2.400000 3.281250 0.0
2.442857 3.281250 0.0
2.485714 3.281250 0.0
2.528571 3.281250 0.0
2.571429 3.281250 0.0
2.614286 3.281250 0.0
2.657143 3.281250 0.0
2.700000 3.281250 0.0
2.742857 3.281250 0.0
2.785714 3.281250 0.0
2.828571 3.281250 0.0
2.871429 3.281250 0.0
2.914286 3.281250 0.0
2.957143 3.281250 0.0
3.000000 3.281250 0.0
1.500000 3.325000 0.0
1.542857 3.325000 0.0
1.585714 3.325000 0.0
1.628571 3.325000 0.0
1.671429 3.325000 0.0
1.714286 3.325000 0.0
1.757143 3.325000 0.0
1.800000 3.325000 0.0
1.842857 3.325000 0.0
1.885714 3.325000 0.0
1.928571 3.325000 0.0
1.971429 3.325000 0.0
2.014286 3.325000 0.0
2.057143 3.325000 0.0
2.100000 3.325000 0.0
2.142857 3.325000 0.0
2.185714 3.325000 0.0
2.228571 3.325000 0.0
2.271429 3.325000 0.0
2.314286 3.325000 0.0
2.357143 3.325000 0.0
2.400000 3.325000 0.0
2.442857 3.325000 0.0
2.485714 3.325000 0.0
2.528571 3.325000 0.0
2.571429 3.325000 0.0
2.614286 3.325000 0.0
2.657143 3.325000 0.0
2.700000 3.325000 0.0
2.742857 3.325000 0.0
2.785714 3.325000 0.0
2.828571 3.325000 0.0
2.871429 3.325000 0.0
2.914286 3.325000 0.0
2.957143 3.325000 0.0
3.000000 3.325000 0.0
1.500000 3.368750 0.0
1.542857 3.368750 0.0
1.585714 3.368750 0.0
1.628571 3.368750 0.0
1.671429 3.368750 0.0
1.714286 3.368750 0.0
1.757143 3.368750 0.0
1.800000 3.368750 0.0
1.842857 3.368750 0.0
1.885714 3.368750 0.0
1.928571 3.368750 0.0
1.971429 3.368750 0.0
2.014286 3.368750 0.0
2.057143 3.368750 0.0
2.100000 3.368750 0.0
2.142857 3.368750 0.0
2.185714 3.368750 0.0
2.228571 3.368750 0.0
2.271429 3.368750 0.0
2.314286 3.368750 0.0
2.357143 3.368750 0.0
2.400000 3.368750 0.0
2.442857 3.368750 0.0
2.485714 3.368750 0.0
2.528571 3.368750 0.0
2.571429 3.368750 0.0
2.614286 3.368750 0.0
2.657143 3.368750 0.0
2.700000 3.368750 0.0
2.742857 3.368750 0.0
2.785714 3.368750 0.0
2.828571 3.368750 0.0
2.871429 3.368750 0.0
2.914286 3.368750 0.0
2.957143 3.368750 0.0
3.000000 3.368750 0.0
1.500000 3.412500 0.0
1.542857 3.412500 0.0
1.585714 3.412500 0.0
1.628571 3.412500 0.0
1.671429 3.412500 0.0
1.714286 3.412500 0.0
1.757143 3.412500 0.0
1.800000 3.412500 0.0
1.842857 3.412500 0.0
1.885714 3.412500 0.0
1.928571 3.412500 0.0
1.971429 3.412500 0.0
2.014286 3.412500 0.0
2.057143 3.412500 0.0
2.100000 3.412500 0.0
2.142857 3.412500 0.0
2.185714 3.412500 0.0
2.228571 3.412500 0.0
2.271429 3.412500 0.0
2.314286 3.412500 0.0
2.357143 3.412500 0.0
2.400000 3.412500 0.0
2.442857 3.412500 0.0
2.485714 3.412500 0.0
2.528571 3.412500 0.0
2.571429 3.412500 0.0
2.614286 3.412500 0.0
2.657143 3.412500 0.0
2.700000 3.412500 0.0
2.742857 3.412500 0.0
2.785714 3.412500 0.0
2.828571 3.412500 0.0
2.871429 3.412500 0.0
2.914286 3.412500 0.0
2.957143 3.412500 0.0
3.000000 3.412500 0.0
1.500000 3.456250 0.0
1.542857 3.456250 0.0
1.585714 3.456250 0.0
1.628571 3.456250 0.0
1.671429 3.456250 0.0
1.714286 3.456250 0.0
1.757143 3.456250 0.0
1.800000 3.456250 0.0
1.842857 3.456250 0.0
1.885714 3.456250 0.0
1.928571 3.456250 0.0
1.971429 3.456250 0.0
2.014286 3.456250 0.0
2.057143 3.456250 0.0
2.100000 3.456250 0.0
2.142857 3.456250 0.0
2.185714 3.456250 0.0
2.228571 3.456250 0.0
2.271429 3.456250 0.0
2.314286 3.456250 0.0
2.357143 3.456250 0.0
2.400000 3.456250 0.0
2.442857 3.456250 0.0
2.485714 3.456250 0.0
2.528571 3.456250 0.0
2.571429 3.456250 0.0
2.614286 3.456250 0.0
2.657143 3.456250 0.0
2.700000 3.456250 0.0
2.742857 3.456250 0.0
2.785714 3.456250 0.0
2.828571 3.456250 0.0
2.871429 3.456250 0.0
2.914286 3.456250 0.0
2.957143 3.456250 0.0
3.000000 3.456250 0.0
1.500000 3.500000 0.0
1.542857 3.500000 0.0
1.585714 3.500000 0.0
1.628571 3.500000 0.0
1.671429 3.500000 0.0
1.714286 3.500000 0.0
1.757143 3.500000 0.0
1.800000 3.500000 0.0
1.842857 3.500000 0.0
1.885714 3.500000 0.0
1.928571 3.500000 0.0
1.971429 3.500000 0.0
2.014286 3.500000 0.0
2.057143 3.500000 0.0
2.100000 3.500000 0.0
2.142857 3.500000 0.0
2.185714 3.500000 0.0
2.228571 3.500000 0.0
2.271429 3.500000 0.0
2.314286 3.500000 0.0
2.357143 3.500000 0.0
2.400000 3.500000 0.0
2.442857 3.500000 0.0
2.485714 3.500000 0.0
2.528571 3.500000 0.0
2.571429 3.500000 0.0
2.614286 3.500000 0.0
2.657143 3.500000 0.0
2.700000 3.500000 0.0
2.742857 3.500000 0.0
2.785714 3.500000 0.0
2.828571 3.500000 0.0
2.871429 3.500000 0.0
2.914286 3.500000 0.0
2.957143 3.500000 0.0
3.000000 3.500000 0.0
</DataArray></Points>
<PointData>
<DataArray NumberOfComponents="1" format="ascii" type ="Float32" Name="phi">
-0.238850
-0.242573
-0.239248
-0.228298
-0.210563
-0.188034
-0.162526
-0.133709
-0.102178
-0.071133
-0.034065
0.005319
0.027398
0.026425
0.009887
-0.011921
-0.033931
-0.052196
-0.062962
-0.072165
-0.081517
-0.089785
-0.099268
-0.107096
-0.111114
-0.112301
-0.112407
-0.112161
-0.111879
-0.111549
-0.110949
-0.109676
-0.108620
-0.109133
-0.112420
-0.125792
-0.195669
-0.198964
-0.196232
-0.187231
-0.172012
-0.151560
-0.128310
-0.103228
-0.073815
-0.037140
0.002806
0.025611
0.021481
0.001131
-0.025517
-0.050916
-0.073274
-0.092419
-0.105104
-0.114722
-0.124125
-0.132579
-0.141914
-0.150124
-0.154698
-0.156037
-0.156152
-0.155906
-0.155625
-0.155293
-0.154685
-0.153408
-0.152362
-0.152852
-0.155873
-0.158219
-0.152383
-0.155323
-0.152959
-0.145355
-0.132550
-0.114146
-0.092100
-0.069752
-0.039617
0.000395
0.025649
0.021298
-0.002255
-0.032516
-0.061323
-0.086971
-0.110709
-0.131686
-0.146536
-0.157066
-0.166619
-0.175353
-0.184580
-0.193079
-0.198202
-0.199771
-0.199900
-0.199653
-0.199372
-0.199039
-0.198422
-0.197141
-0.196104
-0.196573
-0.199375
-0.201529
-0.109022
-0.111665
-0.109577
-0.102860
-0.092072
-0.076387
-0.055289
-0.029106
0.002384
0.025518
0.021390
-0.004924
-0.037303
-0.067549
-0.095309
-0.122039
-0.147180
-0.169937
-0.187236
-0.199383
-0.209266
-0.218120
-0.227268
-0.235970
-0.241627
-0.243500
-0.243647
-0.243400
-0.243119
-0.242784
-0.242158
-0.240874
-0.239847
-0.240296
-0.242915
-0.244909
-0.065649
-0.068053
-0.066186
-0.060034
-0.050203
-0.035726
-0.013316
0.012741
0.028837
0.021740
-0.006142
-0.039718
-0.070960
-0.100052
-0.128571
-0.156233
-0.182624
-0.207059
-0.227027
-0.241385
-0.251905
-0.260889
-0.269984
-0.278814
-0.284982
-0.287220
-0.287393
-0.287147
-0.286865
-0.286528
-0.285894
-0.284608
-0.283590
-0.284022
-0.286483
-0.288343
-0.020745
-0.023006
-0.021204
-0.015079
-0.004807
0.010830
0.028449
0.035871
0.023363
-0.006243
-0.040780
-0.072442
-0.102389
-0.132037
-0.161185
-0.189630
-0.217078
-0.243002
-0.265595
-0.282650
-0.294372
-0.303636
-0.312722
-0.321630
-0.328279
-0.330925
-0.331139
-0.330893
-0.330611
-0.330273
-0.329630
-0.328341
-0.327334
-0.327749
-0.330072
-0.331817
0.025458
0.023626
0.025548
0.031207
0.041236
0.051122
0.047379
0.025983
-0.006463
-0.041453
-0.073160
-0.103326
-0.133571
-0.163580
-0.193226
-0.222332
-0.250663
-0.277828
-0.302670
-0.322737
-0.336470
-0.346319
-0.355462
-0.364429
-0.371517
-0.374601
-0.374884
-0.374638
-0.374357
-0.374017
-0.373367
-0.372075
-0.371077
-0.371478
-0.373680
-0.375324
0.067270
0.066255
0.057448
0.054830
0.058670
0.051254
0.026085
-0.009096
-0.042891
-0.074083
-0.104080
-0.134305
-0.164587
-0.194775
-0.224765
-0.254396
-0.283457
-0.311639
-0.338237
-0.361249
-0.377802
-0.388858
-0.398189
-0.407216
-0.414694
-0.418234
-0.418629
-0.418384
-0.418103
-0.417762
-0.417103
-0.415809
-0.414821
-0.415208
-0.417304
-0.418860
0.062439
0.062250
0.047642
0.037127
0.029281
0.008784
-0.019090
-0.048201
-0.076421
-0.105653
-0.135366
-0.165399
-0.195609
-0.225835
-0.255986
-0.285948
-0.315548
-0.344537
-0.372451
-0.397965
-0.417913
-0.431089
-0.440870
-0.449995
-0.457814
-0.461816
-0.462373
-0.462130
-0.461849
-0.461506
-0.460839
-0.459543
-0.458565
-0.458939
-0.460941
-0.462419
0.009536
0.009932
0.003285
-0.006344
-0.019437
-0.038734
-0.060766
-0.083863
-0.109798
-0.137922
-0.167029
-0.196704
-0.226734
-0.256908
-0.287090
-0.317199
-0.347125
-0.376682
-0.405546
-0.432927
-0.456288
-0.472549
-0.483425
-0.492756
-0.500880
-0.505346
-0.506116
-0.505875
-0.505595
-0.505251
-0.504575
-0.503278
-0.502309
-0.502672
-0.504587
-0.505997
-0.041456
-0.040906
-0.044474
-0.052499
-0.064110
-0.079259
-0.098652
-0.120550
-0.144708
-0.171212
-0.199329
-0.228396
-0.258067
-0.288071
-0.318203
-0.348344
-0.378416
-0.408303
-0.437790
-0.466407
-0.492582
-0.512628
-0.525679
-0.535478
-0.543904
-0.548826
-0.549856
-0.549621
-0.549341
-0.548995
-0.548312
-0.547013
-0.546054
-0.546406
-0.548242
-0.549589
-0.085041
-0.084550
-0.087859
-0.095141
-0.105931
-0.119795
-0.137447
-0.158040
-0.180817
-0.205745
-0.232534
-0.260687
-0.289767
-0.319428
-0.349404
-0.379501
-0.409604
-0.439636
-0.469470
-0.498835
-0.526905
-0.550727
-0.567119
-0.578074
-0.586885
-0.592270
-0.593592
-0.593367
-0.593087
-0.592740
-0.592048
-0.590749
-0.589799
-0.590140
-0.591906
-0.593195
-0.128719
-0.128273
-0.131348
-0.138034
-0.148063
-0.160853
-0.177029
-0.196312
-0.217889
-0.241414
-0.266753
-0.293748
-0.322014
-0.351135
-0.380793
-0.410742
-0.440802
-0.470862
-0.500847
-0.530616
-0.559744
-0.586516
-0.607011
-0.620334
-0.629791
-0.635683
-0.637323
-0.637113
-0.636833
-0.636484
-0.635784
-0.634484
-0.633545
-0.633876
-0.635576
-0.636815
-0.172425
-0.172017
-0.174887
-0.181063
-0.190398
-0.202332
-0.217273
-0.235274
-0.255663
-0.277891
-0.301899
-0.327694
-0.354982
-0.383362
-0.412513
-0.442160
-0.472075
-0.502096
-0.532119
-0.562060
-0.591706
-0.620251
-0.644691
-0.661666
-0.672554
-0.679085
-0.681048
-0.680859
-0.680580
-0.680229
-0.679521
-0.678220
-0.677291
-0.677612
-0.679254
-0.680446
-0.216152
-0.215778
-0.218468
-0.224207
-0.232923
-0.244123
-0.258025
-0.274794
-0.293958
-0.315018
-0.337950
-0.362645
-0.388824
-0.416264
-0.444713
-0.473881
-0.503513
-0.533404
-0.563396
-0.593373
-0.623228
-0.652630
-0.679963
-0.701261
-0.714939
-0.722459
-0.724765
-0.724604
-0.724326
-0.723973
-0.723257
-0.721957
-0.721037
-0.721349
-0.722936
-0.724085
-0.259900
-0.259555
-0.262087
-0.267440
-0.275599
-0.286150
-0.299156
-0.314766
-0.332757
-0.352845
-0.374873
-0.398507
-0.423527
-0.449910
-0.477514
-0.506044
-0.535239
-0.564868
-0.594729
-0.624670
-0.654601
-0.684379
-0.713286
-0.738469
-0.756238
-0.765679
-0.768469
-0.768350
-0.768072
-0.767718
-0.766993
-0.765693
-0.764783
-0.765087
-0.766622
-0.767731
-0.303670
-0.303347
-0.305738
-0.310748
-0.318407
-0.328374
-0.340608
-0.355201
-0.372158
-0.391363
-0.412445
-0.435003
-0.458942
-0.484316
-0.511017
-0.538782
-0.567384
-0.596590
-0.626193
-0.656033
-0.685969
-0.715867
-0.745414
-0.773181
-0.795444
-0.808302
-0.812139
-0.812096
-0.811819
-0.811462
-0.810729
-0.809430
-0.808529
-0.808826
-0.810312
-0.811384
-0.347457
-0.347153
-0.349417
-0.354126
-0.361343
-0.370782
-0.382352
-0.396101
-0.412146
-0.430410
-0.450468
-0.472014
-0.495056
-0.519564
-0.545339
-0.572209
-0.600055
-0.628689
-0.657912
-0.687551
-0.717394
-0.747271
-0.777030
-0.806087
-0.832049
-0.849572
-0.855673
-0.855842
-0.855565
-0.855205
-0.854465
-0.853166
-0.852276
-0.852565
-0.854006
-0.855044
-0.391258
-0.390972
-0.393120
-0.397567
-0.404392
-0.413355
-0.424342
-0.437375
-0.452562
-0.469839
-0.488910
-0.509630
-0.531939
-0.555614
-0.580426
-0.606328
-0.633324
-0.661287
-0.690023
-0.719315
-0.748927
-0.778699
-0.808499
-0.838067
-0.866269
-0.888610
-0.898573
-0.899583
-0.899311
-0.898949
-0.898200
-0.896903
-0.896022
-0.896304
-0.897705
-0.898711
-0.435070
-0.434800
-0.436845
-0.441056
-0.447525
-0.456055
-0.466517
-0.478913
-0.493297
-0.509636
-0.527850
-0.547879
-0.569445
-0.592221
-0.616086
-0.641076
-0.667243
-0.694495
-0.722630
-0.751409
-0.780645
-0.810227
-0.839989
-0.869732
-0.898977
-0.925106
-0.940096
-0.943278
-0.943057
-0.942692
-0.941935
-0.940640
-0.939769
-0.940045
-0.941406
-0.942384
-0.456978
-0.456717
-0.458711
-0.462811
-0.469110
-0.477432
-0.487643
-0.499736
-0.513737
-0.529633
-0.547458
-0.567147
-0.588312
-0.610634
-0.634041
-0.658601
-0.684373
-0.711263
-0.739067
-0.767547
-0.796562
-0.826027
-0.855756
-0.885543
-0.915117
-0.942761
-0.960430
-0.965106
-0.964931
-0.964564
-0.963802
-0.962508
-0.961642
-0.961915
-0.963258
-0.964221
</DataArray>
<DataArray NumberOfComponents="1" format="ascii" type ="Float32" Name="u">
0.003161
0.005286
0.007362
0.009432
0.011548
0.013786
0.016295
0.019368
0.023628
0.030233
0.040721
0.051384
0.054978
0.052683
0.049072
0.044632
0.041092
0.037360
0.035309
0.033573
0.031887
0.030039
0.028313
0.027439
0.026828
0.026340
0.025934
0.025583
0.025264
0.024961
0.024685
0.024486
0.024424
0.024475
0.024543
0.024543
0.002009
0.004280
0.006526
0.008792
0.011143
0.013689
0.016642
0.020395
0.025797
0.034595
0.046092
0.052986
0.052067
0.047989
0.043510
0.039349
0.036544
0.033968
0.032336
0.031025
0.029773
0.028497
0.027447
0.026818
0.026371
0.026019
0.025727
0.025469
0.025227
0.024994
0.024797
0.024685
0.024687
0.024759
0.024813
0.024813
0.000665
0.003115
0.005563
0.008057
0.010675
0.013576
0.017099
0.021694
0.028833
0.039231
0.048362
0.050021
0.046143
0.041771
0.037845
0.034984
0.032846
0.031166
0.030041
0.029138
0.028276
0.027448
0.026797
0.026367
0.026049
0.025793
0.025574
0.025374
0.025184
0.025013
0.024891
0.024855
0.024905
0.024985
0.025029
0.025029
-0.000838
0.001840
0.004538
0.007307
0.010229
0.013501
0.017836
0.023700
0.032328
0.041770
0.046136
0.043781
0.039777
0.036332
0.033675
0.031706
0.030255
0.029203
0.028483
0.027892
0.027320
0.026781
0.026354
0.026047
0.025812
0.025618
0.025448
0.025293
0.025152
0.025043
0.024992
0.025014
0.025091
0.025168
0.025204
0.025204
-0.002455
0.000513
0.003517
0.006623
0.009961
0.013836
0.019029
0.026113
0.034560
0.040664
0.040712
0.037657
0.034890
0.032573
0.030828
0.029551
0.028626
0.027974
0.027515
0.027121
0.026728
0.026356
0.026050
0.025815
0.025629
0.025476
0.025344
0.025230
0.025140
0.025089
0.025093
0.025151
0.025235
0.025301
0.025327
0.025327
-0.003947
-0.000717
0.002586
0.006090
0.010018
0.014755
0.020546
0.027764
0.034278
0.036743
0.035524
0.033507
0.031649
0.030185
0.029079
0.028259
0.027661
0.027239
0.026923
0.026635
0.026342
0.026061
0.025823
0.025633
0.025483
0.025361
0.025263
0.025188
0.025143
0.025139
0.025179
0.025251
0.025327
0.025379
0.025396
0.025396
-0.004661
-0.001232
0.002334
0.006207
0.010609
0.015799
0.021717
0.027892
0.031948
0.032977
0.032228
0.030901
0.029710
0.028765
0.028034
0.027479
0.027068
0.026768
0.026526
0.026294
0.026056
0.025831
0.025637
0.025482
0.025360
0.025268
0.025201
0.025162
0.025154
0.025181
0.025238
0.025309
0.025371
0.025408
0.025418
0.025418
-0.004482
-0.000869
0.002913
0.007032
0.011587
0.016573
0.022119
0.026871
0.029801
0.030705
0.030188
0.029318
0.028516
0.027861
0.027345
0.026947
0.026645
0.026412
0.026212
0.026015
0.025817
0.025632
0.025474
0.025349
0.025256
0.025191
0.025153
0.025143
0.025160
0.025203
0.025264
0.025325
0.025373
0.025398
0.025404
0.025404
-0.003841
-0.000119
0.003777
0.008006
0.012569
0.017280
0.022155
0.026148
0.028616
0.029191
0.028824
0.028220
0.027651
0.027181
0.026805
0.026512
0.026283
0.026098
0.025929
0.025762
0.025598
0.025449
0.025325
0.025229
0.025163
0.025123
0.025109
0.025119
0.025152
0.025201
0.025256
0.025306
0.025341
0.025358
0.025360
0.025360
-0.002962
0.000826
0.004748
0.008907
0.013364
0.018131
0.022415
0.025852
0.027595
0.027970
0.027718
0.027307
0.026915
0.026586
0.026321
0.026110
0.025940
0.025795
0.025657
0.025521
0.025390
0.025274
0.025180
0.025112
0.025070
0.025052
0.025056
0.025079
0.025118
0.025166
0.025213
0.025252
0.025277
0.025288
0.025288
0.025288
-0.002417
0.001530
0.005550
0.009702
0.014089
0.018715
0.022567
0.025252
0.026533
0.026843
0.026723
0.026482
0.026240
0.026032
0.025861
0.025720
0.025601
0.025492
0.025385
0.025280
0.025181
0.025095
0.025029
0.024985
0.024962
0.024960
0.024975
0.025005
0.025044
0.025087
0.025126
0.025155
0.025173
0.025179
0.025178
0.025178
-0.002343
0.001809
0.006008
0.010294
0.014670
0.018850
0.022224
0.024407
0.025456
0.025794
0.025811
0.025721
0.025608
0.025503
0.025411
0.025329
0.025253
0.025178
0.025100
0.025022
0.024951
0.024891
0.024847
0.024821
0.024812
0.024820
0.024840
0.024871
0.024906
0.024942
0.024971
0.024993
0.025004
0.025008
0.025006
0.025006
-0.002371
0.001941
0.006274
0.010622
0.014873
0.018685
0.021620
0.023471
0.024420
0.024826
0.024971
0.025007
0.025001
0.024979
0.024950
0.024914
0.024873
0.024825
0.024771
0.024716
0.024665
0.024623
0.024594
0.024579
0.024578
0.024588
0.024608
0.024634
0.024662
0.024688
0.024708
0.024721
0.024727
0.024728
0.024724
0.024724
-0.002422
0.002005
0.006417
0.010745
0.014808
0.018282
0.020870
0.022515
0.023436
0.023919
0.024171
0.024308
0.024382
0.024421
0.024436
0.024432
0.024413
0.024382
0.024342
0.024300
0.024260
0.024227
0.024204
0.024191
0.024188
0.024195
0.024208
0.024224
0.024240
0.024254
0.024264
0.024268
0.024268
0.024264
0.024260
0.024260
-0.002474
0.002006
0.006433
0.010678
0.014524
0.017702
0.020032
0.021553
0.022476
0.023023
0.023352
0.023555
0.023680
0.023754
0.023790
0.023798
0.023784
0.023755
0.023717
0.023674
0.023633
0.023596
0.023567
0.023547
0.023535
0.023529
0.023528
0.023530
0.023531
0.023530
0.023526
0.023520
0.023512
0.023503
0.023496
0.023496
-0.002517
0.001943
0.006319
0.010428
0.014050
0.016972
0.019106
0.020540
0.021457
0.022035
0.022399
0.022628
0.022765
0.022840
0.022869
0.022864
0.022835
0.022789
0.022734
0.022675
0.022617
0.022564
0.022518
0.022480
0.022449
0.022424
0.022403
0.022385
0.022368
0.022350
0.022331
0.022312
0.022295
0.022280
0.022270
0.022270
-0.002541
0.001813
0.006063
0.009986
0.013367
0.016048
0.018004
0.019336
0.020206
0.020759
0.021101
0.021301
0.021405
0.021440
0.021428
0.021382
0.021313
0.021229