<VTKFile type="StructuredGrid" version="0.1" byte_order="LittleEndian">
<StructuredGrid WholeExtent="1 71 1 81 0 0">
<Piece Extent="36 71 61 81 0 0">
<PointData></PointData>
<CellData></CellData>
<Points>
<DataArray NumberOfComponents="3" format="ascii" type ="Float32" Name="mesh">
1.500000 2.625000 0.0
1.542857 2.625000 0.0
1.585714 2.625000 0.0
1.628571 2.625000 0.0
1.671429 2.625000 0.0
1.714286 2.625000 0.0
1.757143 2.625000 0.0
1.800000 2.625000 0.0
1.842857 2.625000 0.0
1.885714 2.625000 0.0
1.928571 2.625000 0.0
1.971429 2.625000 0.0
2.014286 2.625000 0.0
2.057143 2.625000 0.0
2.100000 2.625000 0.0
2.142857 2.625000 0.0
2.185714 2.625000 0.0
2.228571 2.625000 0.0
2.271429 2.625000 0.0
2.314286 2.625000 0.0
2.357143 2.625000 0.0
2.400000 2.625000 0.0
2.442857 2.625000 0.0
2.485714 2.625000 0.0
2.528571 2.625000 0.0
2.571429 2.625000 0.0
2.614286 2.625000 0.0
2.657143 2.625000 0.0
2.700000 2.625000 0.0
2.742857 2.625000 0.0
2.785714 2.625000 0.0
2.828571 2.625000 0.0
2.871429 2.625000 0.0
2.914286 2.625000 0.0
2.957143 2.625000 0.0
3.000000 2.625000 0.0
1.500000 2.668750 0.0
1.542857 2.668750 0.0
1.585714 2.668750 0.0
1.628571 2.668750 0.0
1.671429 2.668750 0.0
1.714286 2.668750 0.0
1.757143 2.668750 0.0
1.800000 2.668750 0.0
1.842857 2.668750 0.0
1.885714 2.668750 0.0
1.928571 2.668750 0.0
1.971429 2.668750 0.0
2.014286 2.668750 0.0
2.057143 2.668750 0.0
2.100000 2.668750 0.0
2.142857 2.668750 0.0
2.185714 2.668750 0.0
2.228571 2.668750 0.0
2.271429 2.668750 0.0
2.314286 2.668750 0.0
2.357143 2.668750 0.0
2.400000 2.668750 0.0
2.442857 2.668750 0.0
2.485714 2.668750 0.0
2.528571 2.668750 0.0
2.571429 2.668750 0.0
2.614286 2.668750 0.0
2.657143 2.668750 0.0
2.700000 2.668750 0.0
2.742857 2.668750 0.0
2.785714 2.668750 0.0
2.828571 2.668750 0.0
2.871429 2.668750 0.0
2.914286 2.668750 0.0
2.957143 2.668750 0.0
3.000000 2.668750 0.0
1.500000 2.712500 0.0
1.542857 2.712500 0.0
1.585714 2.712500 0.0
1.628571 2.712500 0.0
1.671429 2.712500 0.0
1.714286 2.712500 0.0
1.757143 2.712500 0.0
1.800000 2.712500 0.0
1.842857 2.712500 0.0
1.885714 2.712500 0.0
1.928571 2.712500 0.0
1.971429 2.712500 0.0
2.014286 2.712500 0.0
2.057143 2.712500 0.0
2.100000 2.712500 0.0
2.142857 2.712500 0.0
2.185714 2.712500 0.0
2.228571 2.712500 0.0
2.271429 2.712500 0.0
2.314286 2.712500 0.0
2.357143 2.712500 0.0
2.400000 2.712500 0.0
2.442857 2.712500 0.0
2.485714 2.712500 0.0
2.528571 2.712500 0.0
2.571429 2.712500 0.0
2.614286 2.712500 0.0
2.657143 2.712500 0.0
2.700000 2.712500 0.0
2.742857 2.712500 0.0
2.785714 2.712500 0.0
2.828571 2.712500 0.0
2.871429 2.712500 0.0
2.914286 2.712500 0.0
2.957143 2.712500 0.0
3.000000 2.712500 0.0
1.500000 2.756250 0.0
1.542857 2.756250 0.0
1.585714 2.756250 0.0
1.628571 2.756250 0.0
1.671429 2.756250 0.0
1.714286 2.756250 0.0
1.757143 2.756250 0.0
1.800000 2.756250 0.0
1.842857 2.756250 0.0
1.885714 2.756250 0.0
1.928571 2.756250 0.0
1.971429 2.756250 0.0
2.014286 2.756250 0.0
2.057143 2.756250 0.0
2.100000 2.756250 0.0
2.142857 2.756250 0.0
2.185714 2.756250 0.0
2.228571 2.756250 0.0
2.271429 2.756250 0.0
2.314286 2.756250 0.0
2.357143 2.756250 0.0
2.400000 2.756250 0.0
2.442857 2.756250 0.0
2.485714 2.756250 0.0
2.528571 2.756250 0.0
2.571429 2.756250 0.0
2.614286 2.756250 0.0
2.657143 2.756250 0.0
2.700000 2.756250 0.0
2.742857 2.756250 0.0
2.785714 2.756250 0.0
2.828571 2.756250 0.0
2.871429 2.756250 0.0
2.914286 2.756250 0.0
2.957143 2.756250 0.0
3.000000 2.756250 0.0
1.500000 2.800000 0.0
1.542857 2.800000 0.0
1.585714 2.800000 0.0
1.628571 2.800000 0.0
1.671429 2.800000 0.0
1.714286 2.800000 0.0
1.757143 2.800000 0.0
1.800000 2.800000 0.0
1.842857 2.800000 0.0
1.885714 2.800000 0.0
1.928571 2.800000 0.0
1.971429 2.800000 0.0
2.014286 2.800000 0.0
2.057143 2.800000 0.0
2.100000 2.800000 0.0
2.142857 2.800000 0.0
2.185714 2.800000 0.0
2.228571 2.800000 0.0
2.271429 2.800000 0.0
2.314286 2.800000 0.0
2.357143 2.800000 0.0
2.400000 2.800000 0.0
2.442857 2.800000 0.0
2.485714 2.800000 0.0
2.528571 2.800000 0.0
2.571429 2.800000 0.0
2.614286 2.800000 0.0
2.657143 2.800000 0.0
2.700000 2.800000 0.0
2.742857 2.800000 0.0
2.785714 2.800000 0.0
2.828571 2.800000 0.0
2.871429 2.800000 0.0
2.914286 2.800000 0.0
2.957143 2.800000 0.0
3.000000 2.800000 0.0
1.500000 2.843750 0.0
1.542857 2.843750 0.0
1.585714 2.843750 0.0
1.628571 2.843750 0.0
1.671429 2.843750 0.0
1.714286 2.843750 0.0
1.757143 2.843750 0.0
1.800000 2.843750 0.0
1.842857 2.843750 0.0
1.885714 2.843750 0.0
1.928571 2.843750 0.0
1.971429 2.843750 0.0
2.014286 2.843750 0.0
2.057143 2.843750 0.0
2.100000 2.843750 0.0
2.142857 2.843750 0.0
2.185714 2.843750 0.0
2.228571 2.843750 0.0
2.271429 2.843750 0.0
2.314286 2.843750 0.0
2.357143 2.843750 0.0
2.400000 2.843750 0.0
2.442857 2.843750 0.0
2.485714 2.843750 0.0
2.528571 2.843750 0.0
2.571429 2.843750 0.0
2.614286 2.843750 0.0
2.657143 2.843750 0.0
2.700000 2.843750 0.0
2.742857 2.843750 0.0
2.785714 2.843750 0.0
2.828571 2.843750 0.0
2.871429 2.843750 0.0
2.914286 2.843750 0.0
2.957143 2.843750 0.0
3.000000 2.843750 0.0
1.500000 2.887500 0.0
1.542857 2.887500 0.0
1.585714 2.887500 0.0
1.628571 2.887500 0.0
1.671429 2.887500 0.0
1.714286 2.887500 0.0
1.757143 2.887500 0.0
1.800000 2.887500 0.0
1.842857 2.887500 0.0
1.885714 2.887500 0.0
1.928571 2.887500 0.0
1.971429 2.887500 0.0
2.014286 2.887500 0.0
2.057143 2.887500 0.0
2.100000 2.887500 0.0
2.142857 2.887500 0.0
2.185714 2.887500 0.0
2.228571 2.887500 0.0
2.271429 2.887500 0.0
2.314286 2.887500 0.0
2.357143 2.887500 0.0
2.400000 2.887500 0.0
2.442857 2.887500 0.0
2.485714 2.887500 0.0
2.528571 2.887500 0.0
2.571429 2.887500 0.0
2.614286 2.887500 0.0
2.657143 2.887500 0.0
2.700000 2.887500 0.0
2.742857 2.887500 0.0
2.785714 2.887500 0.0
2.828571 2.887500 0.0
2.871429 2.887500 0.0
2.914286 2.887500 0.0
2.957143 2.887500 0.0
3.000000 2.887500 0.0
1.500000 2.931250 0.0
1.542857 2.931250 0.0
1.585714 2.931250 0.0
1.628571 2.931250 0.0
1.671429 2.931250 0.0
1.714286 2.931250 0.0
1.757143 2.931250 0.0
1.800000 2.931250 0.0
1.842857 2.931250 0.0
1.885714 2.931250 0.0
1.928571 2.931250 0.0
1.971429 2.931250 0.0
2.014286 2.931250 0.0
2.057143 2.931250 0.0
2.100000 2.931250 0.0
2.142857 2.931250 0.0
2.185714 2.931250 0.0
2.228571 2.931250 0.0
2.271429 2.931250 0.0
2.314286 2.931250 0.0
2.357143 2.931250 0.0
2.400000 2.931250 0.0
2.442857 2.931250 0.0
2.485714 2.931250 0.0
2.528571 2.931250 0.0
2.571429 2.931250 0.0
2.614286 2.931250 0.0
2.657143 2.931250 0.0
2.700000 2.931250 0.0
2.742857 2.931250 0.0
2.785714 2.931250 0.0
2.828571 2.931250 0.0
2.871429 2.931250 0.0
2.914286 2.931250 0.0
2.957143 2.931250 0.0
3.000000 2.931250 0.0
1.500000 2.975000 0.0
1.542857 2.975000 0.0
1.585714 2.975000 0.0
1.628571 2.975000 0.0
1.671429 2.975000 0.0
1.714286 2.975000 0.0
1.757143 2.975000 0.0
1.800000 2.975000 0.0
1.842857 2.975000 0.0
1.885714 2.975000 0.0
1.928571 2.975000 0.0
1.971429 2.975000 0.0
2.014286 2.975000 0.0
2.057143 2.975000 0.0
2.100000 2.975000 0.0
2.142857 2.975000 0.0
2.185714 2.975000 0.0
2.228571 2.975000 0.0
2.271429 2.975000 0.0
2.314286 2.975000 0.0
2.357143 2.975000 0.0
2.400000 2.975000 0.0
2.442857 2.975000 0.0
2.485714 2.975000 0.0
2.528571 2.975000 0.0
2.571429 2.975000 0.0
2.614286 2.975000 0.0
2.657143 2.975000 0.0
2.700000 2.975000 0.0
2.742857 2.975000 0.0
2.785714 2.975000 0.0
2.828571 2.975000 0.0
2.871429 2.975000 0.0
2.914286 2.975000 0.0
2.957143 2.975000 0.0
3.000000 2.975000 0.0
1.500000 3.018750 0.0
1.542857 3.018750 0.0
1.585714 3.018750 0.0
1.628571 3.018750 0.0
1.671429 3.018750 0.0
1.714286 3.018750 0.0
1.757143 3.018750 0.0
1.800000 3.018750 0.0
1.842857 3.018750 0.0
1.885714 3.018750 0.0
1.928571 3.018750 0.0
1.971429 3.018750 0.0
2.014286 3.018750 0.0
2.057143 3.018750 0.0
2.100000 3.018750 0.0
2.142857 3.018750 0.0
2.185714 3.018750 0.0
2.228571 3.018750 0.0
2.271429 3.018750 0.0
2.314286 3.018750 0.0
2.357143 3.018750 0.0
2.400000 3.018750 0.0
2.442857 3.018750 0.0
2.485714 3.018750 0.0
2.528571 3.018750 0.0
2.571429 3.018750 0.0
2.614286 3.018750 0.0
2.657143 3.018750 0.0
2.700000 3.018750 0.0
2.742857 3.018750 0.0
2.785714 3.018750 0.0
2.828571 3.018750 0.0
2.871429 3.018750 0.0
2.914286 3.018750 0.0
2.957143 3.018750 0.0
3.000000 3.018750 0.0
1.500000 3.062500 0.0
1.542857 3.062500 0.0
1.585714 3.062500 0.0
1.628571 3.062500 0.0
1.671429 3.062500 0.0
1.714286 3.062500 0.0
1.757143 3.062500 0.0
1.800000 3.062500 0.0
1.842857 3.062500 0.0
1.885714 3.062500 0.0
1.928571 3.062500 0.0
1.971429 3.062500 0.0
2.014286 3.062500 0.0
2.057143 3.062500 0.0
2.100000 3.062500 0.0
2.142857 3.062500 0.0
2.185714 3.062500 0.0
2.228571 3.062500 0.0
2.271429 3.062500 0.0
2.314286 3.062500 0.0
2.357143 3.062500 0.0
2.400000 3.062500 0.0
2.442857 3.062500 0.0
2.485714 3.062500 0.0
2.528571 3.062500 0.0
2.571429 3.062500 0.0
2.614286 3.062500 0.0
2.657143 3.062500 0.0
2.700000 3.062500 0.0
2.742857 3.062500 0.0
2.785714 3.062500 0.0
2.828571 3.062500 0.0
2.871429 3.062500 0.0
2.914286 3.062500 0.0
2.957143 3.062500 0.0
3.000000 3.062500 0.0
1.500000 3.106250 0.0
1.542857 3.106250 0.0
1.585714 3.106250 0.0
1.628571 3.106250 0.0
1.671429 3.106250 0.0
1.714286 3.106250 0.0
1.757143 3.106250 0.0
1.800000 3.106250 0.0
1.842857 3.106250 0.0
1.885714 3.106250 0.0
1.928571 3.106250 0.0
1.971429 3.106250 0.0
2.014286 3.106250 0.0
2.057143 3.106250 0.0
2.100000 3.106250 0.0
2.142857 3.106250 0.0
2.185714 3.106250 0.0
2.228571 3.106250 0.0
2.271429 3.106250 0.0
2.314286 3.106250 0.0
2.357143 3.106250 0.0
2.400000 3.106250 0.0
2.442857 3.106250 0.0
2.485714 3.106250 0.0
2.528571 3.106250 0.0
2.571429 3.106250 0.0
2.614286 3.106250 0.0
2.657143 3.106250 0.0
2.700000 3.106250 0.0
2.742857 3.106250 0.0
2.785714 3.106250 0.0
2.828571 3.106250 0.0
2.871429 3.106250 0.0
2.914286 3.106250 0.0
2.957143 3.106250 0.0
3.000000 3.106250 0.0
1.500000 3.150000 0.0
1.542857 3.150000 0.0
1.585714 3.150000 0.0
1.628571 3.150000 0.0
1.671429 3.150000 0.0
1.714286 3.150000 0.0
1.757143 3.150000 0.0
1.800000 3.150000 0.0
1.842857 3.150000 0.0
1.885714 3.150000 0.0
1.928571 3.150000 0.0
1.971429 3.150000 0.0
2.014286 3.150000 0.0
2.057143 3.150000 0.0
2.100000 3.150000 0.0
2.142857 3.150000 0.0
2.185714 3.150000 0.0
2.228571 3.150000 0.0
2.271429 3.150000 0.0
2.314286 3.150000 0.0
2.357143 3.150000 0.0
2.400000 3.150000 0.0
2.442857 3.150000 0.0
2.485714 3.150000 0.0
2.528571 3.150000 0.0
2.571429 3.150000 0.0
2.614286 3.150000 0.0
2.657143 3.150000 0.0
2.700000 3.150000 0.0
2.742857 3.150000 0.0
2.785714 3.150000 0.0
2.828571 3.150000 0.0
2.871429 3.150000 0.0
2.914286 3.150000 0.0
2.957143 3.150000 0.0
3.000000 3.150000 0.0
1.500000 3.193750 0.0
1.542857 3.193750 0.0
1.585714 3.193750 0.0
1.628571 3.193750 0.0
1.671429 3.193750 0.0
1.714286 3.193750 0.0
1.757143 3.193750 0.0
1.800000 3.193750 0.0
1.842857 3.193750 0.0
1.885714 3.193750 0.0
1.928571 3.193750 0.0
1.971429 3.193750 0.0
2.014286 3.193750 0.0
2.057143 3.193750 0.0
2.100000 3.193750 0.0
2.142857 3.193750 0.0
2.185714 3.193750 0.0
2.228571 3.193750 0.0
2.271429 3.193750 0.0
2.314286 3.193750 0.0
2.357143 3.193750 0.0
2.400000 3.193750 0.0
2.442857 3.193750 0.0
2.485714 3.193750 0.0
2.528571 3.193750 0.0
2.571429 3.193750 0.0
2.614286 3.193750 0.0
2.657143 3.193750 0.0
2.700000 3.193750 0.0
2.742857 3.193750 0.0
2.785714 3.193750 0.0
2.828571 3.193750 0.0
2.871429 3.193750 0.0
2.914286 3.193750 0.0
2.957143 3.193750 0.0
3.000000 3.193750 0.0
1.500000 3.237500 0.0
1.542857 3.237500 0.0
1.585714 3.237500 0.0
1.628571 3.237500 0.0
1.671429 3.237500 0.0
1.714286 3.237500 0.0
1.757143 3.237500 0.0
1.800000 3.237500 0.0
1.842857 3.237500 0.0
1.885714 3.237500 0.0
1.928571 3.237500 0.0
1.971429 3.237500 0.0
2.014286 3.237500 0.0
2.057143 3.237500 0.0
2.100000 3.237500 0.0
2.142857 3.237500 0.0
2.185714 3.237500 0.0
2.228571 3.237500 0.0
2.271429 3.237500 0.0
2.314286 3.237500 0.0
2.357143 3.237500 0.0
2.400000 3.237500 0.0
2.442857 3.237500 0.0
2.485714 3.237500 0.0
2.528571 3.237500 0.0
2.571429 3.237500 0.0
2.614286 3.237500 0.0
2.657143 3.237500 0.0
2.700000 3.237500 0.0
2.742857 3.237500 0.0
2.785714 3.237500 0.0
2.828571 3.237500 0.0
2.871429 3.237500 0.0
2.914286 3.237500 0.0
2.957143 3.237500 0.0
3.000000 3.237500 0.0
1.500000 3.281250 0.0
1.542857 3.281250 0.0
1.585714 3.281250 0.0
1.628571 3.281250 0.0
1.671429 3.281250 0.0
1.714286 3.281250 0.0
1.757143 3.281250 0.0
1.800000 3.281250 0.0
1.842857 3.281250 0.0
1.885714 3.281250 0.0
1.928571 3.281250 0.0
1.971429 3.281250 0.0
2.014286 3.281250 0.0
2.057143 3.281250 0.0
2.100000 3.281250 0.0
2.142857 3.281250 0.0
2.185714 3.281250 0.0
2.228571 3.281250 0.0
2.271429 3.281250 0.0
2.314286 3.281250 0.0
2.357143 3.281250 0.0
2.400000 3.281250 0.0
2.442857 3.281250 0.0
2.485714 3.281250 0.0
2.528571 3.281250 0.0
2.571429 3.281250 0.0
2.614286 3.281250 0.0
2.657143 3.281250 0.0
2.700000 3.281250 0.0
2.742857 3.281250 0.0
2.785714 3.281250 0.0
2.828571 3.281250 0.0
2.871429 3.281250 0.0
2.914286 3.281250 0.0
2.957143 3.281250 0.0
3.000000 3.281250 0.0
1.500000 3.325000 0.0
1.542857 3.325000 0.0
1.585714 3.325000 0.0
1.628571 3.325000 0.0
1.671429 3.325000 0.0
1.714286 3.325000 0.0
1.757143 3.325000 0.0
1.800000 3.325000 0.0
1.842857 3.325000 0.0
1.885714 3.325000 0.0
1.928571 3.325000 0.0
1.971429 3.325000 0.0
2.014286 3.325000 0.0
2.057143 3.325000 0.0
2.100000 3.325000 0.0
2.142857 3.325000 0.0
2.185714 3.325000 0.0
2.228571 3.325000 0.0
2.271429 3.325000 0.0
2.314286 3.325000 0.0
2.357143 3.325000 0.0
2.400000 3.325000 0.0
2.442857 3.325000 0.0
2.485714 3.325000 0.0
2.528571 3.325000 0.0
2.571429 3.325000 0.0
2.614286 3.325000 0.0
2.657143 3.325000 0.0
2.700000 3.325000 0.0
2.742857 3.325000 0.0
2.785714 3.325000 0.0
2.828571 3.325000 0.0
2.871429 3.325000 0.0
2.914286 3.325000 0.0
2.957143 3.325000 0.0
3.000000 3.325000 0.0
1.500000 3.368750 0.0
1.542857 3.368750 0.0
1.585714 3.368750 0.0
1.628571 3.368750 0.0
1.671429 3.368750 0.0
1.714286 3.368750 0.0
1.757143 3.368750 0.0
1.800000 3.368750 0.0
1.842857 3.368750 0.0
1.885714 3.368750 0.0
1.928571 3.368750 0.0
1.971429 3.368750 0.0
2.014286 3.368750 0.0
2.057143 3.368750 0.0
2.100000 3.368750 0.0
2.142857 3.368750 0.0
2.185714 3.368750 0.0
2.228571 3.368750 0.0
2.271429 3.368750 0.0
2.314286 3.368750 0.0
2.357143 3.368750 0.0
2.400000 3.368750 0.0
2.442857 3.368750 0.0
2.485714 3.368750 0.0
2.528571 3.368750 0.0
2.571429 3.368750 0.0
2.614286 3.368750 0.0
2.657143 3.368750 0.0
2.700000 3.368750 0.0
2.742857 3.368750 0.0
2.785714 3.368750 0.0
2.828571 3.368750 0.0
2.871429 3.368750 0.0
2.914286 3.368750 0.0
2.957143 3.368750 0.0
3.000000 3.368750 0.0
1.500000 3.412500 0.0
1.542857 3.412500 0.0
1.585714 3.412500 0.0
1.628571 3.412500 0.0
1.671429 3.412500 0.0
1.714286 3.412500 0.0
1.757143 3.412500 0.0
1.800000 3.412500 0.0
1.842857 3.412500 0.0
1.885714 3.412500 0.0
1.928571 3.412500 0.0
1.971429 3.412500 0.0
2.014286 3.412500 0.0
2.057143 3.412500 0.0
2.100000 3.412500 0.0
2.142857 3.412500 0.0
2.185714 3.412500 0.0
2.228571 3.412500 0.0
2.271429 3.412500 0.0
2.314286 3.412500 0.0
2.357143 3.412500 0.0
2.400000 3.412500 0.0
2.442857 3.412500 0.0
2.485714 3.412500 0.0
2.528571 3.412500 0.0
2.571429 3.412500 0.0
2.614286 3.412500 0.0
2.657143 3.412500 0.0
2.700000 3.412500 0.0
2.742857 3.412500 0.0
2.785714 3.412500 0.0
2.828571 3.412500 0.0
2.871429 3.412500 0.0
2.914286 3.412500 0.0
2.957143 3.412500 0.0
3.000000 3.412500 0.0
1.500000 3.456250 0.0
1.542857 3.456250 0.0
1.585714 3.456250 0.0
1.628571 3.456250 0.0
1.671429 3.456250 0.0
1.714286 3.456250 0.0
1.757143 3.456250 0.0
1.800000 3.456250 0.0
1.842857 3.456250 0.0
1.885714 3.456250 0.0
1.928571 3.456250 0.0
1.971429 3.456250 0.0
2.014286 3.456250 0.0
2.057143 3.456250 0.0
2.100000 3.456250 0.0
2.142857 3.456250 0.0
2.185714 3.456250 0.0
2.228571 3.456250 0.0
2.271429 3.456250 0.0
2.314286 3.456250 0.0
2.357143 3.456250 0.0
2.400000 3.456250 0.0
2.442857 3.456250 0.0
2.485714 3.456250 0.0
2.528571 3.456250 0.0
2.571429 3.456250 0.0
2.614286 3.456250 0.0
2.657143 3.456250 0.0
2.700000 3.456250 0.0
2.742857 3.456250 0.0
2.785714 3.456250 0.0
2.828571 3.456250 0.0
2.871429 3.456250 0.0
2.914286 3.456250 0.0
2.957143 3.456250 0.0
3.000000 3.456250 0.0
1.500000 3.500000 0.0
1.542857 3.500000 0.0
1.585714 3.500000 0.0
1.628571 3.500000 0.0
1.671429 3.500000 0.0
1.714286 3.500000 0.0
1.757143 3.500000 0.0
1.800000 3.500000 0.0
1.842857 3.500000 0.0
1.885714 3.500000 0.0
1.928571 3.500000 0.0
1.971429 3.500000 0.0
2.014286 3.500000 0.0
2.057143 3.500000 0.0
2.100000 3.500000 0.0
2.142857 3.500000 0.0
2.185714 3.500000 0.0
2.228571 3.500000 0.0
2.271429 3.500000 0.0
2.314286 3.500000 0.0
2.357143 3.500000 0.0
2.400000 3.500000 0.0
2.442857 3.500000 0.0
2.485714 3.500000 0.0
2.528571 3.500000 0.0
2.571429 3.500000 0.0
2.614286 3.500000 0.0
2.657143 3.500000 0.0
2.700000 3.500000 0.0
2.742857 3.500000 0.0
2.785714 3.500000 0.0
2.828571 3.500000 0.0
2.871429 3.500000 0.0
2.914286 3.500000 0.0
2.957143 3.500000 0.0
3.000000 3.500000 0.0
</DataArray></Points>
<PointData>
<DataArray NumberOfComponents="1" format="ascii" type ="Float32" Name="phi">
0.029346
0.028424
0.030905
0.036787
0.046595
0.059586
0.072431
0.078376
0.072094
0.052433
0.027729
0.006531
-0.010833
-0.025745
-0.039211
-0.049745
-0.057496
-0.064853
-0.073839
-0.083309
-0.091208
-0.097069
-0.101162
-0.103908
-0.105581
-0.106416
-0.106637
-0.106522
-0.106381
-0.106824
-0.108877
-0.112765
-0.117133
-0.120661
-0.123634
-0.136043
0.073114
0.072327
0.074519
0.079885
0.083514
0.082206
0.075955
0.060640
0.037168
0.010501
-0.014781
-0.035906
-0.052914
-0.067461
-0.080936
-0.092240
-0.100549
-0.107868
-0.116630
-0.126072
-0.134286
-0.140488
-0.144760
-0.147592
-0.149308
-0.150159
-0.150385
-0.150269
-0.150128
-0.150559
-0.152527
-0.156315
-0.160680
-0.164268
-0.167277
-0.168775
0.093629
0.092718
0.089542
0.085811
0.078252
0.063445
0.042508
0.018335
-0.007137
-0.032784
-0.055741
-0.075764
-0.093354
-0.108663
-0.122559
-0.134551
-0.143490
-0.150906
-0.159464
-0.168810
-0.177283
-0.183850
-0.188343
-0.191272
-0.193033
-0.193902
-0.194131
-0.194015
-0.193875
-0.194295
-0.196183
-0.199871
-0.204224
-0.207870
-0.210921
-0.212421
0.069404
0.068418
0.060703
0.048976
0.035939
0.020088
-0.001007
-0.024923
-0.048586
-0.071305
-0.093486
-0.114495
-0.133325
-0.149614
-0.164050
-0.176685
-0.186294
-0.193956
-0.202344
-0.211537
-0.220205
-0.227150
-0.231908
-0.234947
-0.236755
-0.237643
-0.237876
-0.237761
-0.237622
-0.238032
-0.239845
-0.243433
-0.247766
-0.251467
-0.254563
-0.256068
0.020721
0.019901
0.013864
0.004063
-0.008664
-0.024552
-0.043891
-0.064814
-0.086283
-0.108527
-0.130848
-0.152566
-0.172654
-0.190161
-0.205361
-0.218646
-0.228957
-0.236988
-0.245257
-0.254270
-0.263061
-0.270377
-0.275447
-0.278614
-0.280476
-0.281383
-0.281621
-0.281506
-0.281368
-0.281770
-0.283512
-0.287002
-0.291307
-0.295059
-0.298206
-0.299718
-0.027341
-0.027995
-0.032614
-0.040941
-0.052582
-0.066567
-0.083409
-0.103021
-0.124011
-0.145958
-0.168233
-0.190273
-0.211297
-0.230136
-0.246398
-0.260421
-0.271483
-0.279947
-0.288150
-0.297043
-0.305905
-0.313537
-0.318950
-0.322275
-0.324194
-0.325122
-0.325365
-0.325251
-0.325115
-0.325509
-0.327185
-0.330578
-0.334846
-0.338646
-0.341847
-0.343369
-0.071447
-0.071981
-0.075980
-0.083553
-0.094398
-0.107680
-0.123457
-0.141850
-0.162077
-0.183570
-0.205684
-0.227820
-0.249414
-0.269455
-0.287002
-0.301958
-0.313863
-0.322830
-0.331027
-0.339850
-0.348755
-0.356643
-0.362408
-0.365926
-0.367910
-0.368860
-0.369109
-0.368996
-0.368862
-0.369248
-0.370865
-0.374162
-0.378386
-0.382230
-0.385486
-0.387020
-0.115145
-0.115638
-0.119335
-0.126337
-0.136496
-0.149098
-0.163901
-0.181162
-0.200523
-0.221436
-0.243262
-0.265342
-0.287202
-0.308126
-0.326999
-0.343149
-0.356059
-0.365648
-0.373921
-0.382670
-0.391586
-0.399695
-0.405818
-0.409567
-0.411624
-0.412599
-0.412853
-0.412742
-0.412609
-0.412988
-0.414550
-0.417754
-0.421925
-0.425809
-0.429124
-0.430672
-0.158867
-0.159325
-0.162757
-0.169255
-0.178776
-0.190733
-0.204727
-0.220978
-0.239413
-0.259616
-0.281005
-0.302914
-0.324842
-0.346293
-0.366314
-0.383832
-0.397980
-0.408361
-0.416819
-0.425512
-0.434407
-0.442696
-0.449178
-0.453194
-0.455336
-0.456336
-0.456597
-0.456487
-0.456357
-0.456728
-0.458240
-0.461353
-0.465467
-0.469385
-0.472759
-0.474324
-0.202602
-0.203029
-0.206234
-0.212297
-0.221236
-0.232577
-0.245875
-0.261246
-0.278751
-0.298144
-0.318953
-0.340592
-0.362478
-0.384173
-0.405005
-0.423856
-0.439471
-0.450890
-0.459682
-0.468353
-0.477222
-0.485651
-0.492484
-0.496800
-0.499045
-0.500074
-0.500341
-0.500233
-0.500104
-0.500469
-0.501935
-0.504959
-0.509010
-0.512956
-0.516390
-0.517975
-0.246351
-0.246749
-0.249758
-0.255444
-0.263851
-0.274607
-0.287273
-0.301870
-0.318493
-0.337033
-0.357163
-0.378406
-0.400157
-0.421934
-0.443250
-0.463203
-0.480370
-0.493127
-0.502476
-0.511183
-0.520036
-0.528570
-0.535730
-0.540376
-0.542751
-0.543812
-0.544085
-0.543979
-0.543852
-0.544210
-0.545632
-0.548570
-0.552566
-0.556534
-0.560017
-0.561624
-0.290110
-0.290484
-0.293319
-0.298668
-0.306589
-0.316803
-0.328895
-0.342812
-0.358626
-0.376315
-0.395700
-0.416421
-0.437928
-0.459668
-0.481218
-0.501948
-0.520554
-0.534943
-0.545177
-0.554005
-0.562850
-0.571463
-0.578919
-0.583914
-0.586452
-0.587549
-0.587830
-0.587725
-0.587600
-0.587951
-0.589333
-0.592188
-0.596133
-0.600118
-0.603641
-0.605270
-0.333879
-0.334232
-0.336909
-0.341954
-0.349441
-0.359162
-0.370729
-0.384042
-0.399131
-0.416007
-0.434605
-0.454695
-0.475831
-0.497438
-0.519056
-0.540245
-0.560015
-0.576205
-0.587702
-0.596804
-0.605664
-0.614337
-0.622051
-0.627411
-0.630147
-0.631285
-0.631574
-0.631471
-0.631347
-0.631693
-0.633038
-0.635810
-0.639701
-0.643700
-0.647262
-0.648913
-0.377656
-0.377991
-0.380526
-0.385302
-0.392405
-0.401673
-0.412749
-0.425504
-0.439937
-0.456059
-0.473876
-0.493271
-0.513919
-0.535301
-0.556888
-0.578294
-0.598857
-0.616757
-0.629876
-0.639543
-0.648475
-0.657201
-0.665133
-0.670863
-0.673834
-0.675022
-0.675319
-0.675217
-0.675095
-0.675435
-0.676745
-0.679438
-0.683270
-0.687277
-0.690877
-0.692553
-0.421442
-0.421760
-0.424169
-0.428712
-0.435463
-0.444301
-0.454911
-0.467145
-0.480977
-0.496415
-0.513499
-0.532180
-0.552247
-0.573283
-0.594755
-0.616236
-0.637262
-0.656543
-0.671509
-0.682164
-0.691272
-0.700059
-0.708170
-0.714270
-0.717512
-0.718757
-0.719064
-0.718963
-0.718843
-0.719177
-0.720455
-0.723072
-0.726841
-0.730848
-0.734487
-0.736187
-0.465235
-0.465537
-0.467835
-0.472168
-0.478592
-0.487021
-0.497194
-0.508944
-0.522231
-0.537065
-0.553483
-0.571452
-0.590861
-0.611436
-0.632698
-0.654154
-0.675411
-0.695642
-0.712476
-0.724562
-0.734029
-0.742904
-0.751173
-0.757631
-0.761172
-0.762492
-0.762808
-0.762709
-0.762591
-0.762920
-0.764166
-0.766710
-0.770414
-0.774416
-0.778091
-0.779817
-0.509035
-0.509323
-0.511519
-0.515657
-0.521775
-0.529826
-0.539596
-0.550908
-0.563710
-0.578009
-0.593813
-0.611086
-0.629796
-0.649812
-0.670753
-0.692104
-0.713442
-0.734230
-0.752698
-0.766544
-0.776706
-0.785733
-0.794147
-0.800944
-0.804807
-0.806225
-0.806553
-0.806456
-0.806339
-0.806663
-0.807880
-0.810353
-0.813991
-0.817982
-0.821690
-0.823441
-0.552839
-0.553116
-0.555218
-0.559172
-0.565013
-0.572725
-0.582127
-0.593040
-0.605399
-0.619194
-0.634412
-0.651027
-0.669051
-0.688452
-0.708966
-0.730125
-0.751452
-0.772516
-0.792185
-0.807922
-0.819234
-0.828533
-0.837099
-0.844207
-0.848411
-0.849956
-0.850298
-0.850202
-0.850087
-0.850406
-0.851595
-0.854000
-0.857572
-0.861548
-0.865286
-0.867061
-0.596647
-0.596915
-0.598928
-0.602713
-0.608308
-0.615714
-0.624771
-0.635305
-0.647241
-0.660551
-0.675214
-0.691222
-0.708608
-0.727383
-0.747384
-0.768245
-0.789483
-0.810663
-0.831069
-0.848584
-0.861464
-0.871275
-0.880024
-0.887419
-0.891978
-0.893685
-0.894043
-0.893949
-0.893836
-0.894149
-0.895312
-0.897652
-0.901157
-0.905116
-0.908879
-0.910676
-0.640460
-0.640718
-0.642651
-0.646282
-0.651654
-0.658772
-0.667497
-0.677668
-0.689199
-0.702049
-0.716200
-0.731662
-0.748470
-0.766628
-0.786055
-0.806512
-0.827576
-0.848775
-0.869582
-0.888527
-0.903203
-0.913907
-0.922915
-0.930584
-0.935507
-0.937410
-0.937788
-0.937695
-0.937584
-0.937893
-0.939032
-0.941308
-0.944748
-0.948686
-0.952471
-0.954288
-0.662367
-0.662621
-0.664515
-0.668074
-0.673339
-0.680315
-0.688877
-0.698871
-0.710205
-0.722831
-0.736738
-0.751943
-0.768479
-0.786332
-0.805459
-0.825688
-0.846641
-0.867828
-0.888780
-0.908333
-0.923928
-0.935187
-0.944352
-0.952157
-0.957263
-0.959272
-0.959660
-0.959569
-0.959458
-0.959765
-0.960892
-0.963137
-0.966544
-0.970472
-0.974266
-0.976093
</DataArray>
<DataArray NumberOfComponents="1" format="ascii" type ="Float32" Name="u">
-0.003722
-0.000331
0.003234
0.007129
0.011534
0.016571
0.022103
0.028108
0.033125
0.034933
0.034639
0.032547
0.030398
0.028738
0.027579
0.026286
0.024914
0.023873
0.024084
0.024073
0.023814
0.023390
0.022863
0.022269
0.021632
0.020962
0.020278
0.019612
0.019046
0.018764
0.018989
0.019608
0.020097
0.020404
0.020542
0.020542
-0.003735
-0.000191
0.003555
0.007634
0.012158
0.017137
0.022488
0.027509
0.030836
0.031146
0.029920
0.028559
0.026895
0.025879
0.025365
0.024547
0.023748
0.023380
0.023492
0.023466
0.023255
0.022903
0.022453
0.021937
0.021381
0.020812
0.020268
0.019806
0.019513
0.019497
0.019775
0.020176
0.020503
0.020713
0.020801
0.020801
-0.003413
0.000211
0.004037
0.008184
0.012704
0.017369
0.021995
0.025763
0.027359
0.027516
0.026377
0.025755
0.024901
0.024388
0.023958
0.023453
0.023085
0.022985
0.023006
0.022916
0.022699
0.022385
0.022002
0.021578
0.021140
0.020717
0.020352
0.020093
0.019995
0.020082
0.020307
0.020560
0.020763
0.020889
0.020937
0.020937
-0.002837
0.000750
0.004534
0.008616
0.012978
0.017196
0.020892
0.023570
0.024626
0.025026
0.024538
0.024106
0.023647
0.023332
0.023021
0.022738
0.022582
0.022547
0.022507
0.022380
0.022170
0.021898
0.021589
0.021264
0.020948
0.020668
0.020456
0.020342
0.020343
0.020448
0.020608
0.020766
0.020886
0.020956
0.020979
0.020979
-0.002042
0.001494
0.005177
0.009031
0.012952
0.016752
0.019954
0.022007
0.023075
0.023379
0.023180
0.022925
0.022673
0.022475
0.022288
0.022149
0.022086
0.022057
0.021992
0.021863
0.021680
0.021464
0.021232
0.021003
0.020796
0.020631
0.020528
0.020497
0.020538
0.020629
0.020739
0.020837
0.020906
0.020943
0.020952
0.020952
-0.001398
0.002189
0.005818
0.009438
0.012939
0.016326
0.019141
0.020886
0.021734
0.022024
0.022004
0.021906
0.021799
0.021707
0.021628
0.021583
0.021567
0.021544
0.021483
0.021378
0.021240
0.021085
0.020927
0.020782
0.020662
0.020581
0.020546
0.020558
0.020609
0.020683
0.020757
0.020819
0.020859
0.020877
0.020878
0.020878
-0.001135
0.002462
0.006032
0.009510
0.012813
0.015829
0.018158
0.019660
0.020447
0.020802
0.020928
0.020969
0.020983
0.020991
0.021002
0.021022
0.021042
0.021039
0.021003
0.020936
0.020849
0.020755
0.020664
0.020587
0.020532
0.020507
0.020512
0.020545
0.020597
0.020655
0.020709
0.020749
0.020773
0.020781
0.020779
0.020779
-0.001046
0.002462
0.005926
0.009269
0.012377
0.015073
0.017111
0.018462
0.019251
0.019692
0.019944
0.020105
0.020224
0.020320
0.020404
0.020478
0.020534
0.020563
0.020563
0.020541
0.020505
0.020466
0.020430
0.020406
0.020399
0.020410
0.020440
0.020483
0.020533
0.020582
0.020623
0.020652
0.020667
0.020670
0.020667
0.020667
-0.001002
0.002393
0.005729
0.008908
0.011797
0.014232
0.016075
0.017343
0.018161
0.018689
0.019049
0.019313
0.019522
0.019695
0.019842
0.019964
0.020059
0.020126
0.020167
0.020190
0.020201
0.020209
0.020218
0.020235
0.020261
0.020298
0.020343
0.020392
0.020441
0.020484
0.020519
0.020541
0.020552
0.020554
0.020550
0.020550
-0.000967
0.002289
0.005472
0.008470
0.011149
0.013379
0.015089
0.016318
0.017177
0.017786
0.018238
0.018591
0.018878
0.019117
0.019319
0.019487
0.019623
0.019729
0.019811
0.019875
0.019928
0.019975
0.020021
0.020068
0.020119
0.020173
0.020229
0.020282
0.020332
0.020373
0.020404
0.020424
0.020433
0.020434
0.020430
0.020430
-0.000933
0.002162
0.005176
0.007989
0.010481
0.012553
0.014175
0.015392
0.016294
0.016975
0.017506
0.017934
0.018288
0.018586
0.018837
0.019048
0.019223
0.019368
0.019487
0.019589
0.019676
0.019755
0.019829
0.019900
0.019969
0.020036
0.020099
0.020157
0.020207
0.020248
0.020278
0.020297
0.020306
0.020307
0.020303
0.020303
-0.000895
0.002024
0.004862
0.007498
0.009828
0.011780
0.013343
0.014560
0.015504
0.016247
0.016844
0.017336
0.017747
0.018095
0.018390
0.018640
0.018851
0.019030
0.019183
0.019315
0.019431
0.019536
0.019631
0.019720
0.019802
0.019878
0.019947
0.020007
0.020059
0.020099
0.020129
0.020148
0.020158
0.020159
0.020155
0.020155
-0.000853
0.001885
0.004548
0.007021
0.009212
0.011071
0.012592
0.013814
0.014794
0.015587
0.016239
0.016783
0.017242
0.017631
0.017963
0.018246
0.018488
0.018695
0.018875
0.019031
0.019169
0.019292
0.019403
0.019503
0.019594
0.019676
0.019748
0.019810
0.019862
0.019902
0.019932
0.019950
0.019959
0.019961
0.019957
0.019957
-0.000809
0.001752
0.004247
0.006570
0.008643
0.010424
0.011912
0.013137
0.014144
0.014975
0.015669
0.016252
0.016746
0.017167
0.017527
0.017835
0.018099
0.018327
0.018524
0.018697
0.018848
0.018983
0.019102
0.019209
0.019304
0.019387
0.019460
0.019521
0.019571
0.019609
0.019636
0.019653
0.019661
0.019662
0.019658
0.019658
-0.000767
0.001626
0.003962
0.006148
0.008114
0.009825
0.011280
0.012501
0.013520
0.014374
0.015092
0.015698
0.016214
0.016653
0.017027
0.017348
0.017623
0.017860
0.018065
0.018244
0.018400
0.018536
0.018657
0.018763
0.018855
0.018935
0.019003
0.019059
0.019104
0.019138
0.019161
0.019174
0.019179
0.019178
0.019174
0.019174
-0.000728
0.001503
0.003686
0.005739
0.007601
0.009240
0.010651
0.011850
0.012862
0.013715
0.014435
0.015044
0.015560
0.015998
0.016370
0.016687
0.016957
0.017188
0.017387
0.017558
0.017706
0.017834
0.017945
0.018041
0.018123
0.018193
0.018251
0.018297
0.018332
0.018357
0.018372
0.018379
0.018380
0.018375
0.018369
0.018369
-0.000695
0.001369
0.003394
0.005306
0.007050
0.008597
0.009939
0.011086
0.012058
0.012878
0.013568
0.014148
0.014636
0.015046
0.015390
0.015680
0.015925
0.016131