<VTKFile type="StructuredGrid" version="0.1" byte_order="LittleEndian">
<StructuredGrid WholeExtent="1 71 1 81 0 0">
<Piece Extent="36 71 1 21 0 0">
<PointData></PointData>
<CellData></CellData>
<Points>
<DataArray NumberOfComponents="3" format="ascii" type ="Float32" Name="mesh">
1.500000 0.000000 0.0
1.542857 0.000000 0.0
1.585714 0.000000 0.0
1.628571 0.000000 0.0
1.671429 0.000000 0.0
1.714286 0.000000 0.0
1.757143 0.000000 0.0
1.800000 0.000000 0.0
1.842857 0.000000 0.0
1.885714 0.000000 0.0
1.928571 0.000000 0.0
1.971429 0.000000 0.0
2.014286 0.000000 0.0
2.057143 0.000000 0.0
2.100000 0.000000 0.0
2.142857 0.000000 0.0
2.185714 0.000000 0.0
2.228571 0.000000 0.0
2.271429 0.000000 0.0
2.314286 0.000000 0.0
2.357143 0.000000 0.0
2.400000 0.000000 0.0
2.442857 0.000000 0.0
2.485714 0.000000 0.0
2.528571 0.000000 0.0
2.571429 0.000000 0.0
2.614286 0.000000 0.0
2.657143 0.000000 0.0
2.700000 0.000000 0.0
2.742857 0.000000 0.0
2.785714 0.000000 0.0
2.828571 0.000000 0.0
2.871429 0.000000 0.0
2.914286 0.000000 0.0
2.957143 0.000000 0.0
3.000000 0.000000 0.0
1.500000 0.043750 0.0
1.542857 0.043750 0.0
1.585714 0.043750 0.0
1.628571 0.043750 0.0
1.671429 0.043750 0.0
1.714286 0.043750 0.0
1.757143 0.043750 0.0
1.800000 0.043750 0.0
1.842857 0.043750 0.0
1.885714 0.043750 0.0
1.928571 0.043750 0.0
1.971429 0.043750 0.0
2.014286 0.043750 0.0
2.057143 0.043750 0.0
2.100000 0.043750 0.0
2.142857 0.043750 0.0
2.185714 0.043750 0.0
2.228571 0.043750 0.0
2.271429 0.043750 0.0
2.314286 0.043750 0.0
2.357143 0.043750 0.0
2.400000 0.043750 0.0
2.442857 0.043750 0.0
2.485714 0.043750 0.0
2.528571 0.043750 0.0
2.571429 0.043750 0.0
2.614286 0.043750 0.0
2.657143 0.043750 0.0
2.700000 0.043750 0.0
2.742857 0.043750 0.0
2.785714 0.043750 0.0
2.828571 0.043750 0.0
2.871429 0.043750 0.0
2.914286 0.043750 0.0
2.957143 0.043750 0.0
3.000000 0.043750 0.0
1.500000 0.087500 0.0
1.542857 0.087500 0.0
1.585714 0.087500 0.0
1.628571 0.087500 0.0
1.671429 0.087500 0.0
1.714286 0.087500 0.0
1.757143 0.087500 0.0
1.800000 0.087500 0.0
1.842857 0.087500 0.0
1.885714 0.087500 0.0
1.928571 0.087500 0.0
1.971429 0.087500 0.0
2.014286 0.087500 0.0
2.057143 0.087500 0.0
2.100000 0.087500 0.0
2.142857 0.087500 0.0
2.185714 0.087500 0.0
2.228571 0.087500 0.0
2.271429 0.087500 0.0
2.314286 0.087500 0.0
2.357143 0.087500 0.0
2.400000 0.087500 0.0
2.442857 0.087500 0.0
2.485714 0.087500 0.0
2.528571 0.087500 0.0
2.571429 0.087500 0.0
2.614286 0.087500 0.0
2.657143 0.087500 0.0
2.700000 0.087500 0.0
2.742857 0.087500 0.0
2.785714 0.087500 0.0
2.828571 0.087500 0.0
2.871429 0.087500 0.0
2.914286 0.087500 0.0
2.957143 0.087500 0.0
3.000000 0.087500 0.0
1.500000 0.131250 0.0
1.542857 0.131250 0.0
1.585714 0.131250 0.0
1.628571 0.131250 0.0
1.671429 0.131250 0.0
1.714286 0.131250 0.0
1.757143 0.131250 0.0
1.800000 0.131250 0.0
1.842857 0.131250 0.0
1.885714 0.131250 0.0
1.928571 0.131250 0.0
1.971429 0.131250 0.0
2.014286 0.131250 0.0
2.057143 0.131250 0.0
2.100000 0.131250 0.0
2.142857 0.131250 0.0
2.185714 0.131250 0.0
2.228571 0.131250 0.0
2.271429 0.131250 0.0
2.314286 0.131250 0.0
2.357143 0.131250 0.0
2.400000 0.131250 0.0
2.442857 0.131250 0.0
2.485714 0.131250 0.0
2.528571 0.131250 0.0
2.571429 0.131250 0.0
2.614286 0.131250 0.0
2.657143 0.131250 0.0
2.700000 0.131250 0.0
2.742857 0.131250 0.0
2.785714 0.131250 0.0
2.828571 0.131250 0.0
2.871429 0.131250 0.0
2.914286 0.131250 0.0
2.957143 0.131250 0.0
3.000000 0.131250 0.0
1.500000 0.175000 0.0
1.542857 0.175000 0.0
1.585714 0.175000 0.0
1.628571 0.175000 0.0
1.671429 0.175000 0.0
1.714286 0.175000 0.0
1.757143 0.175000 0.0
1.800000 0.175000 0.0
1.842857 0.175000 0.0
1.885714 0.175000 0.0
1.928571 0.175000 0.0
1.971429 0.175000 0.0
2.014286 0.175000 0.0
2.057143 0.175000 0.0
2.100000 0.175000 0.0
2.142857 0.175000 0.0
2.185714 0.175000 0.0
2.228571 0.175000 0.0
2.271429 0.175000 0.0
2.314286 0.175000 0.0
2.357143 0.175000 0.0
2.400000 0.175000 0.0
2.442857 0.175000 0.0
2.485714 0.175000 0.0
2.528571 0.175000 0.0
2.571429 0.175000 0.0
2.614286 0.175000 0.0
2.657143 0.175000 0.0
2.700000 0.175000 0.0
2.742857 0.175000 0.0
2.785714 0.175000 0.0
2.828571 0.175000 0.0
2.871429 0.175000 0.0
2.914286 0.175000 0.0
2.957143 0.175000 0.0
3.000000 0.175000 0.0
1.500000 0.218750 0.0
1.542857 0.218750 0.0
1.585714 0.218750 0.0
1.628571 0.218750 0.0
1.671429 0.218750 0.0
1.714286 0.218750 0.0
1.757143 0.218750 0.0
1.800000 0.218750 0.0
1.842857 0.218750 0.0
1.885714 0.218750 0.0
1.928571 0.218750 0.0
1.971429 0.218750 0.0
2.014286 0.218750 0.0
2.057143 0.218750 0.0
2.100000 0.218750 0.0
2.142857 0.218750 0.0
2.185714 0.218750 0.0
2.228571 0.218750 0.0
2.271429 0.218750 0.0
2.314286 0.218750 0.0
2.357143 0.218750 0.0
2.400000 0.218750 0.0
2.442857 0.218750 0.0
2.485714 0.218750 0.0
2.528571 0.218750 0.0
2.571429 0.218750 0.0
2.614286 0.218750 0.0
2.657143 0.218750 0.0
2.700000 0.218750 0.0
2.742857 0.218750 0.0
2.785714 0.218750 0.0
2.828571 0.218750 0.0
2.871429 0.218750 0.0
2.914286 0.218750 0.0
2.957143 0.218750 0.0
3.000000 0.218750 0.0
1.500000 0.262500 0.0
1.542857 0.262500 0.0
1.585714 0.262500 0.0
1.628571 0.262500 0.0
1.671429 0.262500 0.0
1.714286 0.262500 0.0
1.757143 0.262500 0.0
1.800000 0.262500 0.0
1.842857 0.262500 0.0
1.885714 0.262500 0.0
1.928571 0.262500 0.0
1.971429 0.262500 0.0
2.014286 0.262500 0.0
2.057143 0.262500 0.0
2.100000 0.262500 0.0
2.142857 0.262500 0.0
2.185714 0.262500 0.0
2.228571 0.262500 0.0
2.271429 0.262500 0.0
2.314286 0.262500 0.0
2.357143 0.262500 0.0
2.400000 0.262500 0.0
2.442857 0.262500 0.0
2.485714 0.262500 0.0
2.528571 0.262500 0.0
2.571429 0.262500 0.0
2.614286 0.262500 0.0
2.657143 0.262500 0.0
2.700000 0.262500 0.0
2.742857 0.262500 0.0
2.785714 0.262500 0.0
2.828571 0.262500 0.0
2.871429 0.262500 0.0
2.914286 0.262500 0.0
2.957143 0.262500 0.0
3.000000 0.262500 0.0
1.500000 0.306250 0.0
1.542857 0.306250 0.0
1.585714 0.306250 0.0
1.628571 0.306250 0.0
1.671429 0.306250 0.0
1.714286 0.306250 0.0
1.757143 0.306250 0.0
1.800000 0.306250 0.0
1.842857 0.306250 0.0
1.885714 0.306250 0.0
1.928571 0.306250 0.0
1.971429 0.306250 0.0
2.014286 0.306250 0.0
2.057143 0.306250 0.0
2.100000 0.306250 0.0
2.142857 0.306250 0.0
2.185714 0.306250 0.0
2.228571 0.306250 0.0
2.271429 0.306250 0.0
2.314286 0.306250 0.0
2.357143 0.306250 0.0
2.400000 0.306250 0.0
2.442857 0.306250 0.0
2.485714 0.306250 0.0
2.528571 0.306250 0.0
2.571429 0.306250 0.0
2.614286 0.306250 0.0
2.657143 0.306250 0.0
2.700000 0.306250 0.0
2.742857 0.306250 0.0
2.785714 0.306250 0.0
2.828571 0.306250 0.0
2.871429 0.306250 0.0
2.914286 0.306250 0.0
2.957143 0.306250 0.0
3.000000 0.306250 0.0
1.500000 0.350000 0.0
1.542857 0.350000 0.0
1.585714 0.350000 0.0
1.628571 0.350000 0.0
1.671429 0.350000 0.0
1.714286 0.350000 0.0
1.757143 0.350000 0.0
1.800000 0.350000 0.0
1.842857 0.350000 0.0
1.885714 0.350000 0.0
1.928571 0.350000 0.0
1.971429 0.350000 0.0
2.014286 0.350000 0.0
2.057143 0.350000 0.0
2.100000 0.350000 0.0
2.142857 0.350000 0.0
2.185714 0.350000 0.0
2.228571 0.350000 0.0
2.271429 0.350000 0.0
2.314286 0.350000 0.0
2.357143 0.350000 0.0
2.400000 0.350000 0.0
2.442857 0.350000 0.0
2.485714 0.350000 0.0
2.528571 0.350000 0.0
2.571429 0.350000 0.0
2.614286 0.350000 0.0
2.657143 0.350000 0.0
2.700000 0.350000 0.0
2.742857 0.350000 0.0
2.785714 0.350000 0.0
2.828571 0.350000 0.0
2.871429 0.350000 0.0
2.914286 0.350000 0.0
2.957143 0.350000 0.0
3.000000 0.350000 0.0
1.500000 0.393750 0.0
1.542857 0.393750 0.0
1.585714 0.393750 0.0
1.628571 0.393750 0.0
1.671429 0.393750 0.0
1.714286 0.393750 0.0
1.757143 0.393750 0.0
1.800000 0.393750 0.0
1.842857 0.393750 0.0
1.885714 0.393750 0.0
1.928571 0.393750 0.0
1.971429 0.393750 0.0
2.014286 0.393750 0.0
2.057143 0.393750 0.0
2.100000 0.393750 0.0
2.142857 0.393750 0.0
2.185714 0.393750 0.0
2.228571 0.393750 0.0
2.271429 0.393750 0.0
2.314286 0.393750 0.0
2.357143 0.393750 0.0
2.400000 0.393750 0.0
2.442857 0.393750 0.0
2.485714 0.393750 0.0
2.528571 0.393750 0.0
2.571429 0.393750 0.0
2.614286 0.393750 0.0
2.657143 0.393750 0.0
2.700000 0.393750 0.0
2.742857 0.393750 0.0
2.785714 0.393750 0.0
2.828571 0.393750 0.0
2.871429 0.393750 0.0
2.914286 0.393750 0.0
2.957143 0.393750 0.0
3.000000 0.393750 0.0
1.500000 0.437500 0.0
1.542857 0.437500 0.0
1.585714 0.437500 0.0
1.628571 0.437500 0.0
1.671429 0.437500 0.0
1.714286 0.437500 0.0
1.757143 0.437500 0.0
1.800000 0.437500 0.0
1.842857 0.437500 0.0
1.885714 0.437500 0.0
1.928571 0.437500 0.0
1.971429 0.437500 0.0
2.014286 0.437500 0.0
2.057143 0.437500 0.0
2.100000 0.437500 0.0
2.142857 0.437500 0.0
2.185714 0.437500 0.0
2.228571 0.437500 0.0
2.271429 0.437500 0.0
2.314286 0.437500 0.0
2.357143 0.437500 0.0
2.400000 0.437500 0.0
2.442857 0.437500 0.0
2.485714 0.437500 0.0
2.528571 0.437500 0.0
2.571429 0.437500 0.0
2.614286 0.437500 0.0
2.657143 0.437500 0.0
2.700000 0.437500 0.0
2.742857 0.437500 0.0
2.785714 0.437500 0.0
2.828571 0.437500 0.0
2.871429 0.437500 0.0
2.914286 0.437500 0.0
2.957143 0.437500 0.0
3.000000 0.437500 0.0
1.500000 0.481250 0.0
1.542857 0.481250 0.0
1.585714 0.481250 0.0
1.628571 0.481250 0.0
1.671429 0.481250 0.0
1.714286 0.481250 0.0
1.757143 0.481250 0.0
1.800000 0.481250 0.0
1.842857 0.481250 0.0
1.885714 0.481250 0.0
1.928571 0.481250 0.0
1.971429 0.481250 0.0
2.014286 0.481250 0.0
2.057143 0.481250 0.0
2.100000 0.481250 0.0
2.142857 0.481250 0.0
2.185714 0.481250 0.0
2.228571 0.481250 0.0
2.271429 0.481250 0.0
2.314286 0.481250 0.0
2.357143 0.481250 0.0
2.400000 0.481250 0.0
2.442857 0.481250 0.0
2.485714 0.481250 0.0
2.528571 0.481250 0.0
2.571429 0.481250 0.0
2.614286 0.481250 0.0
2.657143 0.481250 0.0
2.700000 0.481250 0.0
2.742857 0.481250 0.0
2.785714 0.481250 0.0
2.828571 0.481250 0.0
2.871429 0.481250 0.0
2.914286 0.481250 0.0
2.957143 0.481250 0.0
3.000000 0.481250 0.0
1.500000 0.525000 0.0
1.542857 0.525000 0.0
1.585714 0.525000 0.0
1.628571 0.525000 0.0
1.671429 0.525000 0.0
1.714286 0.525000 0.0
1.757143 0.525000 0.0
1.800000 0.525000 0.0
1.842857 0.525000 0.0
1.885714 0.525000 0.0
1.928571 0.525000 0.0
1.971429 0.525000 0.0
2.014286 0.525000 0.0
2.057143 0.525000 0.0
2.100000 0.525000 0.0
2.142857 0.525000 0.0
2.185714 0.525000 0.0
2.228571 0.525000 0.0
2.271429 0.525000 0.0
2.314286 0.525000 0.0
2.357143 0.525000 0.0
2.400000 0.525000 0.0
2.442857 0.525000 0.0
2.485714 0.525000 0.0
2.528571 0.525000 0.0
2.571429 0.525000 0.0
2.614286 0.525000 0.0
2.657143 0.525000 0.0
2.700000 0.525000 0.0
2.742857 0.525000 0.0
2.785714 0.525000 0.0
2.828571 0.525000 0.0
2.871429 0.525000 0.0
2.914286 0.525000 0.0
2.957143 0.525000 0.0
3.000000 0.525000 0.0
1.500000 0.568750 0.0
1.542857 0.568750 0.0
1.585714 0.568750 0.0
1.628571 0.568750 0.0
1.671429 0.568750 0.0
1.714286 0.568750 0.0
1.757143 0.568750 0.0
1.800000 0.568750 0.0
1.842857 0.568750 0.0
1.885714 0.568750 0.0
1.928571 0.568750 0.0
1.971429 0.568750 0.0
2.014286 0.568750 0.0
2.057143 0.568750 0.0
2.100000 0.568750 0.0
2.142857 0.568750 0.0
2.185714 0.568750 0.0
2.228571 0.568750 0.0
2.271429 0.568750 0.0
2.314286 0.568750 0.0
2.357143 0.568750 0.0
2.400000 0.568750 0.0
2.442857 0.568750 0.0
2.485714 0.568750 0.0
2.528571 0.568750 0.0
2.571429 0.568750 0.0
2.614286 0.568750 0.0
2.657143 0.568750 0.0
2.700000 0.568750 0.0
2.742857 0.568750 0.0
2.785714 0.568750 0.0
2.828571 0.568750 0.0
2.871429 0.568750 0.0
2.914286 0.568750 0.0
2.957143 0.568750 0.0
3.000000 0.568750 0.0
1.500000 0.612500 0.0
1.542857 0.612500 0.0
1.585714 0.612500 0.0
1.628571 0.612500 0.0
1.671429 0.612500 0.0
1.714286 0.612500 0.0
1.757143 0.612500 0.0
1.800000 0.612500 0.0
1.842857 0.612500 0.0
1.885714 0.612500 0.0
1.928571 0.612500 0.0
1.971429 0.612500 0.0
2.014286 0.612500 0.0
2.057143 0.612500 0.0
2.100000 0.612500 0.0
2.142857 0.612500 0.0
2.185714 0.612500 0.0
2.228571 0.612500 0.0
2.271429 0.612500 0.0
2.314286 0.612500 0.0
2.357143 0.612500 0.0
2.400000 0.612500 0.0
2.442857 0.612500 0.0
2.485714 0.612500 0.0
2.528571 0.612500 0.0
2.571429 0.612500 0.0
2.614286 0.612500 0.0
2.657143 0.612500 0.0
2.700000 0.612500 0.0
2.742857 0.612500 0.0
2.785714 0.612500 0.0
2.828571 0.612500 0.0
2.871429 0.612500 0.0
2.914286 0.612500 0.0
2.957143 0.612500 0.0
3.000000 0.612500 0.0
1.500000 0.656250 0.0
1.542857 0.656250 0.0
1.585714 0.656250 0.0
1.628571 0.656250 0.0
1.671429 0.656250 0.0
1.714286 0.656250 0.0
1.757143 0.656250 0.0
1.800000 0.656250 0.0
1.842857 0.656250 0.0
1.885714 0.656250 0.0
1.928571 0.656250 0.0
1.971429 0.656250 0.0
2.014286 0.656250 0.0
2.057143 0.656250 0.0
2.100000 0.656250 0.0
2.142857 0.656250 0.0
2.185714 0.656250 0.0
2.228571 0.656250 0.0
2.271429 0.656250 0.0
2.314286 0.656250 0.0
2.357143 0.656250 0.0
2.400000 0.656250 0.0
2.442857 0.656250 0.0
2.485714 0.656250 0.0
2.528571 0.656250 0.0
2.571429 0.656250 0.0
2.614286 0.656250 0.0
2.657143 0.656250 0.0
2.700000 0.656250 0.0
2.742857 0.656250 0.0
2.785714 0.656250 0.0
2.828571 0.656250 0.0
2.871429 0.656250 0.0
2.914286 0.656250 0.0
2.957143 0.656250 0.0
3.000000 0.656250 0.0
1.500000 0.700000 0.0
1.542857 0.700000 0.0
1.585714 0.700000 0.0
1.628571 0.700000 0.0
1.671429 0.700000 0.0
1.714286 0.700000 0.0
1.757143 0.700000 0.0
1.800000 0.700000 0.0
1.842857 0.700000 0.0
1.885714 0.700000 0.0
1.928571 0.700000 0.0
1.971429 0.700000 0.0
2.014286 0.700000 0.0
2.057143 0.700000 0.0
2.100000 0.700000 0.0
2.142857 0.700000 0.0
2.185714 0.700000 0.0
2.228571 0.700000 0.0
2.271429 0.700000 0.0
2.314286 0.700000 0.0
2.357143 0.700000 0.0
2.400000 0.700000 0.0
2.442857 0.700000 0.0
2.485714 0.700000 0.0
2.528571 0.700000 0.0
2.571429 0.700000 0.0
2.614286 0.700000 0.0
2.657143 0.700000 0.0
2.700000 0.700000 0.0
2.742857 0.700000 0.0
2.785714 0.700000 0.0
2.828571 0.700000 0.0
2.871429 0.700000 0.0
2.914286 0.700000 0.0
2.957143 0.700000 0.0
3.000000 0.700000 0.0
1.500000 0.743750 0.0
1.542857 0.743750 0.0
1.585714 0.743750 0.0
1.628571 0.743750 0.0
1.671429 0.743750 0.0
1.714286 0.743750 0.0
1.757143 0.743750 0.0
1.800000 0.743750 0.0
1.842857 0.743750 0.0
1.885714 0.743750 0.0
1.928571 0.743750 0.0
1.971429 0.743750 0.0
2.014286 0.743750 0.0
2.057143 0.743750 0.0
2.100000 0.743750 0.0
2.142857 0.743750 0.0
2.185714 0.743750 0.0
2.228571 0.743750 0.0
2.271429 0.743750 0.0
2.314286 0.743750 0.0
2.357143 0.743750 0.0
2.400000 0.743750 0.0
2.442857 0.743750 0.0
2.485714 0.743750 0.0
2.528571 0.743750 0.0
2.571429 0.743750 0.0
2.614286 0.743750 0.0
2.657143 0.743750 0.0
2.700000 0.743750 0.0
2.742857 0.743750 0.0
2.785714 0.743750 0.0
2.828571 0.743750 0.0
2.871429 0.743750 0.0
2.914286 0.743750 0.0
2.957143 0.743750 0.0
3.000000 0.743750 0.0
1.500000 0.787500 0.0
1.542857 0.787500 0.0
1.585714 0.787500 0.0
1.628571 0.787500 0.0
1.671429 0.787500 0.0
1.714286 0.787500 0.0
1.757143 0.787500 0.0
1.800000 0.787500 0.0
1.842857 0.787500 0.0
1.885714 0.787500 0.0
1.928571 0.787500 0.0
1.971429 0.787500 0.0
2.014286 0.787500 0.0
2.057143 0.787500 0.0
2.100000 0.787500 0.0
2.142857 0.787500 0.0
2.185714 0.787500 0.0
2.228571 0.787500 0.0
2.271429 0.787500 0.0
2.314286 0.787500 0.0
2.357143 0.787500 0.0
2.400000 0.787500 0.0
2.442857 0.787500 0.0
2.485714 0.787500 0.0
2.528571 0.787500 0.0
2.571429 0.787500 0.0
2.614286 0.787500 0.0
2.657143 0.787500 0.0
2.700000 0.787500 0.0
2.742857 0.787500 0.0
2.785714 0.787500 0.0
2.828571 0.787500 0.0
2.871429 0.787500 0.0
2.914286 0.787500 0.0
2.957143 0.787500 0.0
3.000000 0.787500 0.0
1.500000 0.831250 0.0
1.542857 0.831250 0.0
1.585714 0.831250 0.0
1.628571 0.831250 0.0
1.671429 0.831250 0.0
1.714286 0.831250 0.0
1.757143 0.831250 0.0
1.800000 0.831250 0.0
1.842857 0.831250 0.0
1.885714 0.831250 0.0
1.928571 0.831250 0.0
1.971429 0.831250 0.0
2.014286 0.831250 0.0
2.057143 0.831250 0.0
2.100000 0.831250 0.0
2.142857 0.831250 0.0
2.185714 0.831250 0.0
2.228571 0.831250 0.0
2.271429 0.831250 0.0
2.314286 0.831250 0.0
2.357143 0.831250 0.0
2.400000 0.831250 0.0
2.442857 0.831250 0.0
2.485714 0.831250 0.0
2.528571 0.831250 0.0
2.571429 0.831250 0.0
2.614286 0.831250 0.0
2.657143 0.831250 0.0
2.700000 0.831250 0.0
2.742857 0.831250 0.0
2.785714 0.831250 0.0
2.828571 0.831250 0.0
2.871429 0.831250 0.0
2.914286 0.831250 0.0
2.957143 0.831250 0.0
3.000000 0.831250 0.0
1.500000 0.875000 0.0
1.542857 0.875000 0.0
1.585714 0.875000 0.0
1.628571 0.875000 0.0
1.671429 0.875000 0.0
1.714286 0.875000 0.0
1.757143 0.875000 0.0
1.800000 0.875000 0.0
1.842857 0.875000 0.0
1.885714 0.875000 0.0
1.928571 0.875000 0.0
1.971429 0.875000 0.0
2.014286 0.875000 0.0
2.057143 0.875000 0.0
2.100000 0.875000 0.0
2.142857 0.875000 0.0
2.185714 0.875000 0.0
2.228571 0.875000 0.0
2.271429 0.875000 0.0
2.314286 0.875000 0.0
2.357143 0.875000 0.0
2.400000 0.875000 0.0
2.442857 0.875000 0.0
2.485714 0.875000 0.0
2.528571 0.875000 0.0
2.571429 0.875000 0.0
2.614286 0.875000 0.0
2.657143 0.875000 0.0
2.700000 0.875000 0.0
2.742857 0.875000 0.0
2.785714 0.875000 0.0
2.828571 0.875000 0.0
2.871429 0.875000 0.0
2.914286 0.875000 0.0
2.957143 0.875000 0.0
3.000000 0.875000 0.0
</DataArray></Points>
<PointData>
<DataArray NumberOfComponents="1" format="ascii" type ="Float32" Name="phi">
1.743310
1.748562
1.755075
1.762356
1.766240
1.763939
1.758801
1.753973
1.750252
1.747831
1.746566
1.746449
1.747295
1.748901
1.751296
1.754522
1.758621
1.763636
1.769603
1.776560
1.784549
1.793571
1.803592
1.814564
1.826424
1.839125
1.852652
1.867032
1.882447
1.899011
1.916557
1.934859
1.953758
1.973164
1.993063
2.003139
1.721661
1.726983
1.733575
1.740895
1.744677
1.742272
1.737122
1.732250
1.728475
1.726018
1.724733
1.724611
1.725462
1.727081
1.729497
1.732753
1.736894
1.741966
1.748005
1.755037
1.763102
1.772215
1.782354
1.793481
1.805536
1.818449
1.832191
1.846754
1.862231
1.878787
1.896415
1.914916
1.934100
1.953845
1.974080
1.984313
1.678366
1.683834
1.690584
1.697972
1.701547
1.698938
1.693765
1.688807
1.684924
1.682392
1.681066
1.680933
1.681795
1.683440
1.685900
1.689220
1.693449
1.698640
1.704832
1.712032
1.720247
1.729525
1.739881
1.751296
1.763724
1.777076
1.791275
1.806259
1.822011
1.838635
1.856293
1.875051
1.894729
1.915117
1.936063
1.946643
1.635082
1.640706
1.647611
1.655044
1.658405
1.655602
1.650416
1.645376
1.641381
1.638767
1.637398
1.637254
1.638125
1.639797
1.642304
1.645693
1.650016
1.655333
1.661693
1.669095
1.677512
1.686956
1.697468
1.709104
1.721849
1.735621
1.750316
1.765815
1.782049
1.799002
1.816751
1.835502
1.855368
1.876259
1.897882
1.908820
1.591812
1.597603
1.604658
1.612105
1.615249
1.612265
1.607078
1.601968
1.597850
1.595143
1.593730
1.593575
1.594455
1.596153
1.598708
1.602169
1.606592
1.612038
1.618565
1.626188
1.634872
1.644570
1.655273
1.667055
1.679989
1.694083
1.709233
1.725285
1.742110
1.759622
1.777798
1.796687
1.816492
1.837495
1.859558
1.870786
1.548561
1.554528
1.561722
1.569155
1.572082
1.568940
1.563764
1.558582
1.554328
1.551519
1.550064
1.549898
1.550785
1.552509
1.555112
1.558647
1.563174
1.568753
1.575443
1.583278
1.592247
1.602279
1.613310
1.625331
1.638399
1.652638
1.668079
1.684608
1.702041
1.720212
1.739024
1.758434
1.778465
1.799371
1.821397
1.832692
1.505332
1.511481
1.518798
1.526189
1.528904
1.525645
1.520484
1.515209
1.510809
1.507897
1.506403
1.506224
1.507115
1.508864
1.511516
1.515129
1.519764
1.525478
1.532328
1.540361
1.549597
1.559980
1.571421
1.583856
1.597239
1.611619
1.627135
1.643900
1.661813
1.680636
1.700179
1.720293
1.740939
1.762139
1.784074
1.795264
1.462120
1.468456
1.475918
1.483238
1.485713
1.482372
1.477224
1.471837
1.467290
1.464278
1.462748
1.462555
1.463446
1.465218
1.467921
1.471614
1.476363
1.482225
1.489240
1.497455
1.506920
1.517625
1.529493
1.542419
1.556302
1.571081
1.586777
1.603564
1.621627
1.640913
1.661143
1.682043
1.703461
1.725347
1.747712
1.759012
1.418923
1.425451
1.433085
1.440287
1.442480
1.439095
1.433961
1.428459
1.423769
1.420663
1.419098
1.418888
1.419777
1.421573
1.424327
1.428106
1.432979
1.439015
1.446233
1.454633
1.464281
1.475236
1.487475
1.500893
1.515350
1.530718
1.546917
1.563951
1.582007
1.601359
1.621988
1.643598
1.665849
1.688561
1.711688
1.723347
1.375742
1.382469
1.390269
1.397288
1.399182
1.395801
1.390690
1.385074
1.380248
1.377052
1.375449
1.375221
1.376109
1.377927
1.380736
1.384606
1.389614
1.395843
1.403313
1.411976
1.421828
1.432947
1.445428
1.459254
1.474270
1.490292
1.507162
1.524807
1.543211
1.562550
1.583139
1.605092
1.628051
1.651622
1.675639
1.687731
1.332580
1.339513
1.347470
1.354245
1.355814
1.352473
1.347404
1.341688
1.336733
1.333446
1.331798
1.331551
1.332439
1.334282
1.337148
1.341116
1.346266
1.352687
1.360424
1.369431
1.379623
1.390980
1.403602
1.417637
1.433066
1.449690
1.467301
1.485712
1.504810
1.524590
1.545201
1.567032
1.590250
1.614541
1.639447
1.651998
1.289445
1.296591
1.304687
1.311157
1.312378
1.309111
1.304109
1.298313
1.293234
1.289843
1.288137
1.287869
1.288764
1.290636
1.293564
1.297634
1.302930
1.309539
1.317529
1.326894
1.337531
1.349328
1.362253
1.376413
1.391980
1.408980
1.427251
1.446480
1.466412
1.486971
1.508130
1.530017
1.553041
1.577539
1.603134
1.616093
1.246350
1.253710
1.261916
1.268028
1.268889
1.265729
1.260818
1.254969
1.249757
1.246234
1.244457
1.244168
1.245077
1.246989
1.249985
1.254162
1.259609
1.266405
1.274626
1.284317
1.295412
1.307760
1.321246
1.335797
1.351486
1.368544
1.387144
1.407051
1.427851
1.449320
1.471332
1.493857
1.517006
1.541265
1.566933
1.580099
1.203299
1.210865
1.219150
1.224865
1.225360
1.222337
1.217538
1.211651
1.206296
1.202619
1.200766
1.200456
1.201381
1.203338
1.206414
1.210708
1.216318
1.223310
1.231747
1.241711
1.253209
1.266123
1.280276
1.295494
1.311679
1.328901
1.347468
1.367623
1.389119
1.411502
1.434480
1.457922
1.481807
1.506238
1.531620
1.544622
1.160284
1.168050
1.176381
1.181676
1.181808
1.178940
1.174262
1.168342
1.162841
1.159002
1.157071
1.156741
1.157680
1.159685
1.162850
1.167279
1.173086
1.180324
1.188994
1.199172
1.210971
1.224366
1.239178
1.255170
1.272136
1.289978
1.308750
1.328799
1.350477
1.373555
1.397489
1.421941
1.446789
1.472013
1.497688
1.510656
1.117299
1.125254
1.133600
1.138474
1.138252
1.135537
1.130985
1.125035
1.119388
1.115386
1.113377
1.113025
1.113978
1.116031
1.119291
1.123870
1.129902
1.137455
1.146468
1.156912
1.168899
1.182587
1.197934
1.214683
1.232532
1.251253
1.270762
1.291088
1.312614
1.335802
1.360426
1.385860
1.411741
1.437969
1.464526
1.477887
1.074342
1.082471
1.090796
1.095258
1.094697
1.092123
1.087698
1.081725
1.075942
1.071777
1.069686
1.069310
1.070276
1.072377
1.075735
1.080476
1.086737
1.094623
1.104088
1.115003
1.127310
1.141142
1.156730
1.174044
1.192733
1.212433
1.232923
1.254095
1.275975
1.298990
1.323654
1.349758
1.376643
1.403935
1.431535
1.445404
1.031415
1.039691
1.047963
1.052021
1.051137
1.048693
1.044401
1.038422
1.032514
1.028182
1.025999
1.025595
1.026574
1.028722
1.032183
1.037092
1.043584
1.051785
1.061716
1.073243
1.086169
1.100389
1.116077
1.133559
1.152812
1.173431
1.194983
1.217209
1.240021
1.263460
1.287960
1.314063
1.341589
1.369906
1.398602
1.413014
0.988523
0.996956
1.005140
1.008763
1.007572
1.005249
1.001109
0.995150
0.989117
0.984605
0.982312
0.981877
0.982869
0.985069
0.988637
0.993722
1.000450
1.008945
1.019302
1.031446
1.045132
1.060122
1.076299
1.093858
1.113194
1.134373
1.156901
1.180242
1.204168
1.228603
1.253608
1.279594
1.307077
1.336005
1.365727
1.380678
0.945673
0.954277
0.962316
0.965464
0.964003
0.961789
0.957830
0.951919
0.945748
0.941038
0.938619
0.938151
0.939161
0.941419
0.945102
0.950375
0.957353
0.966138
0.976861
0.989549
1.004002
1.019907
1.036999
1.055158
1.074583
1.095766
1.118821
1.143193
1.168286
1.193874
1.219927
1.246499
1.273933
1.302798
1.333028
1.348398
0.902865
0.911618
0.919433
0.922103
0.920428
0.918309
0.914549
0.908709
0.902395
0.897475
0.894916
0.894412
0.895445
0.897774
0.901590
0.907077
0.914363
0.923474
0.934501
0.947610
0.962733
0.979557
0.997712
1.016913
1.037052
1.058350
1.081345
1.106223
1.132384
1.159185
1.186428
1.214077
1.242170
1.271031
1.301089
1.324363
</DataArray>
<DataArray NumberOfComponents="1" format="ascii" type ="Float32" Name="u">
0.000000
0.000000
0.000000
0.000000
0.000000
0.000000
0.000000
0.000000
0.000000
0.000000
0.000000
0.000000
0.000000
0.000000
0.000000
0.000000
0.000000
0.000000
0.000000
0.000000
0.000000
0.000000
0.000000
0.000000
0.000000
0.000000
0.000000
0.000000
0.000000
0.000000
0.000000
0.000000
0.000000
0.000000
0.000000
0.000000
-0.000021
-0.000109
-0.000197
-0.000288
-0.000383
-0.000483
-0.000590
-0.000706
-0.000831
-0.000967
-0.001113
-0.001272
-0.001442
-0.001623
-0.001814
-0.002015
-0.002222
-0.002433
-0.002645
-0.002855
-0.003059
-0.003254
-0.003437
-0.003606
-0.003758
-0.003893
-0.004009
-0.004108
-0.004189
-0.004254
-0.004304
-0.004340
-0.004364
-0.004377
-0.004381
-0.004381
-0.000016
-0.000227
-0.000438
-0.000653
-0.000874
-0.001104
-0.001344
-0.001596
-0.001863
-0.002145
-0.002444
-0.002758
-0.003088
-0.003432
-0.003788
-0.004154
-0.004524
-0.004894
-0.005259
-0.005614
-0.005954
-0.006273
-0.006568
-0.006835
-0.007073
-0.007280
-0.007456
-0.007603
-0.007723
-0.007817
-0.007888
-0.007938
-0.007970
-0.007988
-0.007993
-0.007993
0.000001
-0.000335
-0.000672
-0.001013
-0.001361
-0.001719
-0.002088
-0.002472
-0.002870
-0.003286
-0.003718
-0.004166
-0.004630
-0.005105
-0.005590
-0.006079
-0.006568
-0.007049
-0.007517
-0.007966
-0.008388
-0.008778
-0.009134
-0.009451
-0.009728
-0.009966
-0.010166
-0.010330
-0.010461
-0.010563
-0.010638
-0.010690
-0.010723
-0.010741
-0.010746
-0.010746
0.000020
-0.000426
-0.000872
-0.001323
-0.001780
-0.002247
-0.002726
-0.003219
-0.003726
-0.004250
-0.004789
-0.005343
-0.005908
-0.006483
-0.007062
-0.007640
-0.008210
-0.008765
-0.009298
-0.009802
-0.010270
-0.010697
-0.011080
-0.011416
-0.011706
-0.011950
-0.012152
-0.012316
-0.012444
-0.012542
-0.012614
-0.012663
-0.012694
-0.012709
-0.012714
-0.012714
0.000035
-0.000496
-0.001028
-0.001563
-0.002105
-0.002657
-0.003220
-0.003796
-0.004386
-0.004992
-0.005611
-0.006243
-0.006885
-0.007531
-0.008178
-0.008819
-0.009445
-0.010049
-0.010623
-0.011159
-0.011650
-0.012092
-0.012483
-0.012820
-0.013106
-0.013344
-0.013537
-0.013690
-0.013809
-0.013898
-0.013962
-0.014006
-0.014032
-0.014046
-0.014050
-0.014050
0.000043
-0.000548
-0.001140
-0.001736
-0.002338
-0.002949
-0.003573
-0.004209
-0.004860
-0.005526
-0.006205
-0.006895
-0.007594
-0.008295
-0.008993
-0.009680
-0.010348
-0.010986
-0.011586
-0.012141
-0.012643
-0.013087
-0.013473
-0.013801
-0.014073
-0.014295
-0.014472
-0.014610
-0.014715
-0.014792
-0.014847
-0.014884
-0.014907
-0.014918
-0.014921
-0.014921
0.000044
-0.000586
-0.001218
-0.001853
-0.002495
-0.003147
-0.003812
-0.004492
-0.005187
-0.005898
-0.006624
-0.007361
-0.008106
-0.008853
-0.009594
-0.010320
-0.011021
-0.011687
-0.012306
-0.012871
-0.013374
-0.013813
-0.014186
-0.014495
-0.014747
-0.014947
-0.015102
-0.015220
-0.015308
-0.015372
-0.015417
-0.015447
-0.015465
-0.015474
-0.015476
-0.015476
0.000041
-0.000614
-0.001269
-0.001929
-0.002597
-0.003278
-0.003972
-0.004684
-0.005415
-0.006163
-0.006929
-0.007709
-0.008497
-0.009287
-0.010070
-0.010833
-0.011566
-0.012255
-0.012889
-0.013458
-0.013956
-0.014379
-0.014731
-0.015015
-0.015238
-0.015410
-0.015539
-0.015634
-0.015703
-0.015752
-0.015785
-0.015807
-0.015820
-0.015827
-0.015828
-0.015828
0.000035
-0.000635
-0.001305
-0.001980
-0.002666
-0.003366
-0.004085
-0.004824
-0.005586
-0.006371
-0.007177
-0.008001
-0.008835
-0.009670
-0.010496
-0.011299
-0.012063
-0.012774
-0.013417
-0.013984
-0.014468
-0.014868
-0.015188
-0.015437
-0.015625
-0.015763
-0.015861
-0.015931
-0.015978
-0.016010
-0.016031
-0.016044
-0.016052
-0.016056
-0.016057
-0.016057
0.000029
-0.000651
-0.001331
-0.002017
-0.002716
-0.003434
-0.004174
-0.004941
-0.005737
-0.006562
-0.007413
-0.008285
-0.009171
-0.010059
-0.010933
-0.011778
-0.012573
-0.013302
-0.013950
-0.014505
-0.014964
-0.015329
-0.015607
-0.015812
-0.015956
-0.016054
-0.016117
-0.016157
-0.016181
-0.016196
-0.016204
-0.016208
-0.016211
-0.016212
-0.016212
-0.016212
0.000023
-0.000665
-0.001353
-0.002048
-0.002760
-0.003495
-0.004260
-0.005059
-0.005894
-0.006765
-0.007670
-0.008601
-0.009548
-0.010495
-0.011424
-0.012313
-0.013139
-0.013881
-0.014523
-0.015054
-0.015474
-0.015790
-0.016014
-0.016164
-0.016256
-0.016309
-0.016334
-0.016342
-0.016342
-0.016338
-0.016333
-0.016329
-0.016327
-0.016325
-0.016324
-0.016324
0.000019
-0.000678
-0.001373
-0.002079
-0.002806
-0.003563
-0.004357
-0.005195
-0.006078
-0.007007
-0.007977
-0.008979
-0.009998
-0.011014
-0.012004
-0.012938
-0.013791
-0.014536
-0.015157
-0.015648
-0.016011
-0.016261
-0.016417
-0.016502
-0.016536
-0.016539
-0.016523
-0.016499
-0.016474
-0.016452
-0.016434
-0.016422
-0.016414
-0.016410
-0.016408
-0.016408
0.000019
-0.000689
-0.001395
-0.002114
-0.002860
-0.003645
-0.004477
-0.005364
-0.006309
-0.007310
-0.008360
-0.009447
-0.010551
-0.011646
-0.012700
-0.013677
-0.014546
-0.015278
-0.015860
-0.016287
-0.016573
-0.016740
-0.016815
-0.016826
-0.016796
-0.016746
-0.016689
-0.016633
-0.016584
-0.016545
-0.016515
-0.016494
-0.016482
-0.016476
-0.016473
-0.016473
0.000026
-0.000697
-0.001419
-0.002158
-0.002930
-0.003752
-0.004634
-0.005585
-0.006607
-0.007698
-0.008847
-0.010035
-0.011237
-0.012418
-0.013535
-0.014547
-0.015415
-0.016112
-0.016626
-0.016964
-0.017150
-0.017216
-0.017198
-0.017128
-0.017033
-0.016930
-0.016832
-0.016746
-0.016674
-0.016618
-0.016577
-0.016549
-0.016532
-0.016523
-0.016520
-0.016520
0.000046
-0.000702
-0.001447
-0.002214
-0.003023
-0.003895
-0.004843
-0.005877
-0.006997
-0.008199
-0.009467
-0.010774
-0.012085
-0.013353
-0.014528
-0.015557
-0.016398
-0.017027
-0.017441
-0.017661
-0.017724
-0.017674
-0.017555
-0.017402
-0.017240
-0.017087
-0.016950
-0.016836
-0.016743
-0.016672
-0.016621
-0.016587
-0.016566
-0.016555
-0.016551
-0.016551
0.000081
-0.000702
-0.001482
-0.002290
-0.003152
-0.004092
-0.005127
-0.006267
-0.007510
-0.008847
-0.010254
-0.011696
-0.013123
-0.014475
-0.015689
-0.016706
-0.017483
-0.018004
-0.018281
-0.018353
-0.018273
-0.018097
-0.017874
-0.017638
-0.017413
-0.017213
-0.017043
-0.016903
-0.016792
-0.016709
-0.016648
-0.016608
-0.016583
-0.016570
-0.016565
-0.016565
0.000139