<VTKFile type="StructuredGrid" version="0.1" byte_order="LittleEndian">
<StructuredGrid WholeExtent="1 71 1 81 0 0">
<Piece Extent="1 36 1 21 0 0">
<PointData></PointData>
<CellData></CellData>
<Points>
<DataArray NumberOfComponents="3" format="ascii" type ="Float32" Name="mesh">
0.000000 0.000000 0.0
0.042857 0.000000 0.0
0.085714 0.000000 0.0
0.128571 0.000000 0.0
0.171429 0.000000 0.0
0.214286 0.000000 0.0
0.257143 0.000000 0.0
0.300000 0.000000 0.0
0.342857 0.000000 0.0
0.385714 0.000000 0.0
0.428571 0.000000 0.0
0.471429 0.000000 0.0
0.514286 0.000000 0.0
0.557143 0.000000 0.0
0.600000 0.000000 0.0
0.642857 0.000000 0.0
0.685714 0.000000 0.0
0.728571 0.000000 0.0
0.771429 0.000000 0.0
0.814286 0.000000 0.0
0.857143 0.000000 0.0
0.900000 0.000000 0.0
0.942857 0.000000 0.0
0.985714 0.000000 0.0
1.028571 0.000000 0.0
1.071429 0.000000 0.0
1.114286 0.000000 0.0
1.157143 0.000000 0.0
1.200000 0.000000 0.0
1.242857 0.000000 0.0
1.285714 0.000000 0.0
1.328571 0.000000 0.0
1.371429 0.000000 0.0
1.414286 0.000000 0.0
1.457143 0.000000 0.0
1.500000 0.000000 0.0
0.000000 0.043750 0.0
0.042857 0.043750 0.0
0.085714 0.043750 0.0
0.128571 0.043750 0.0
0.171429 0.043750 0.0
0.214286 0.043750 0.0
0.257143 0.043750 0.0
0.300000 0.043750 0.0
0.342857 0.043750 0.0
0.385714 0.043750 0.0
0.428571 0.043750 0.0
0.471429 0.043750 0.0
0.514286 0.043750 0.0
0.557143 0.043750 0.0
0.600000 0.043750 0.0
0.642857 0.043750 0.0
0.685714 0.043750 0.0
0.728571 0.043750 0.0
0.771429 0.043750 0.0
0.814286 0.043750 0.0
0.857143 0.043750 0.0
0.900000 0.043750 0.0
0.942857 0.043750 0.0
0.985714 0.043750 0.0
1.028571 0.043750 0.0
1.071429 0.043750 0.0
1.114286 0.043750 0.0
1.157143 0.043750 0.0
1.200000 0.043750 0.0
1.242857 0.043750 0.0
1.285714 0.043750 0.0
1.328571 0.043750 0.0
1.371429 0.043750 0.0
1.414286 0.043750 0.0
1.457143 0.043750 0.0
1.500000 0.043750 0.0
0.000000 0.087500 0.0
0.042857 0.087500 0.0
0.085714 0.087500 0.0
0.128571 0.087500 0.0
0.171429 0.087500 0.0
0.214286 0.087500 0.0
0.257143 0.087500 0.0
0.300000 0.087500 0.0
0.342857 0.087500 0.0
0.385714 0.087500 0.0
0.428571 0.087500 0.0
0.471429 0.087500 0.0
0.514286 0.087500 0.0
0.557143 0.087500 0.0
0.600000 0.087500 0.0
0.642857 0.087500 0.0
0.685714 0.087500 0.0
0.728571 0.087500 0.0
0.771429 0.087500 0.0
0.814286 0.087500 0.0
0.857143 0.087500 0.0
0.900000 0.087500 0.0
0.942857 0.087500 0.0
0.985714 0.087500 0.0
1.028571 0.087500 0.0
1.071429 0.087500 0.0
1.114286 0.087500 0.0
1.157143 0.087500 0.0
1.200000 0.087500 0.0
1.242857 0.087500 0.0
1.285714 0.087500 0.0
1.328571 0.087500 0.0
1.371429 0.087500 0.0
1.414286 0.087500 0.0
1.457143 0.087500 0.0
1.500000 0.087500 0.0
0.000000 0.131250 0.0
0.042857 0.131250 0.0
0.085714 0.131250 0.0
0.128571 0.131250 0.0
0.171429 0.131250 0.0
0.214286 0.131250 0.0
0.257143 0.131250 0.0
0.300000 0.131250 0.0
0.342857 0.131250 0.0
0.385714 0.131250 0.0
0.428571 0.131250 0.0
0.471429 0.131250 0.0
0.514286 0.131250 0.0
0.557143 0.131250 0.0
0.600000 0.131250 0.0
0.642857 0.131250 0.0
0.685714 0.131250 0.0
0.728571 0.131250 0.0
0.771429 0.131250 0.0
0.814286 0.131250 0.0
0.857143 0.131250 0.0
0.900000 0.131250 0.0
0.942857 0.131250 0.0
0.985714 0.131250 0.0
1.028571 0.131250 0.0
1.071429 0.131250 0.0
1.114286 0.131250 0.0
1.157143 0.131250 0.0
1.200000 0.131250 0.0
1.242857 0.131250 0.0
1.285714 0.131250 0.0
1.328571 0.131250 0.0
1.371429 0.131250 0.0
1.414286 0.131250 0.0
1.457143 0.131250 0.0
1.500000 0.131250 0.0
0.000000 0.175000 0.0
0.042857 0.175000 0.0
0.085714 0.175000 0.0
0.128571 0.175000 0.0
0.171429 0.175000 0.0
0.214286 0.175000 0.0
0.257143 0.175000 0.0
0.300000 0.175000 0.0
0.342857 0.175000 0.0
0.385714 0.175000 0.0
0.428571 0.175000 0.0
0.471429 0.175000 0.0
0.514286 0.175000 0.0
0.557143 0.175000 0.0
0.600000 0.175000 0.0
0.642857 0.175000 0.0
0.685714 0.175000 0.0
0.728571 0.175000 0.0
0.771429 0.175000 0.0
0.814286 0.175000 0.0
0.857143 0.175000 0.0
0.900000 0.175000 0.0
0.942857 0.175000 0.0
0.985714 0.175000 0.0
1.028571 0.175000 0.0
1.071429 0.175000 0.0
1.114286 0.175000 0.0
1.157143 0.175000 0.0
1.200000 0.175000 0.0
1.242857 0.175000 0.0
1.285714 0.175000 0.0
1.328571 0.175000 0.0
1.371429 0.175000 0.0
1.414286 0.175000 0.0
1.457143 0.175000 0.0
1.500000 0.175000 0.0
0.000000 0.218750 0.0
0.042857 0.218750 0.0
0.085714 0.218750 0.0
0.128571 0.218750 0.0
0.171429 0.218750 0.0
0.214286 0.218750 0.0
0.257143 0.218750 0.0
0.300000 0.218750 0.0
0.342857 0.218750 0.0
0.385714 0.218750 0.0
0.428571 0.218750 0.0
0.471429 0.218750 0.0
0.514286 0.218750 0.0
0.557143 0.218750 0.0
0.600000 0.218750 0.0
0.642857 0.218750 0.0
0.685714 0.218750 0.0
0.728571 0.218750 0.0
0.771429 0.218750 0.0
0.814286 0.218750 0.0
0.857143 0.218750 0.0
0.900000 0.218750 0.0
0.942857 0.218750 0.0
0.985714 0.218750 0.0
1.028571 0.218750 0.0
1.071429 0.218750 0.0
1.114286 0.218750 0.0
1.157143 0.218750 0.0
1.200000 0.218750 0.0
1.242857 0.218750 0.0
1.285714 0.218750 0.0
1.328571 0.218750 0.0
1.371429 0.218750 0.0
1.414286 0.218750 0.0
1.457143 0.218750 0.0
1.500000 0.218750 0.0
0.000000 0.262500 0.0
0.042857 0.262500 0.0
0.085714 0.262500 0.0
0.128571 0.262500 0.0
0.171429 0.262500 0.0
0.214286 0.262500 0.0
0.257143 0.262500 0.0
0.300000 0.262500 0.0
0.342857 0.262500 0.0
0.385714 0.262500 0.0
0.428571 0.262500 0.0
0.471429 0.262500 0.0
0.514286 0.262500 0.0
0.557143 0.262500 0.0
0.600000 0.262500 0.0
0.642857 0.262500 0.0
0.685714 0.262500 0.0
0.728571 0.262500 0.0
0.771429 0.262500 0.0
0.814286 0.262500 0.0
0.857143 0.262500 0.0
0.900000 0.262500 0.0
0.942857 0.262500 0.0
0.985714 0.262500 0.0
1.028571 0.262500 0.0
1.071429 0.262500 0.0
1.114286 0.262500 0.0
1.157143 0.262500 0.0
1.200000 0.262500 0.0
1.242857 0.262500 0.0
1.285714 0.262500 0.0
1.328571 0.262500 0.0
1.371429 0.262500 0.0
1.414286 0.262500 0.0
1.457143 0.262500 0.0
1.500000 0.262500 0.0
0.000000 0.306250 0.0
0.042857 0.306250 0.0
0.085714 0.306250 0.0
0.128571 0.306250 0.0
0.171429 0.306250 0.0
0.214286 0.306250 0.0
0.257143 0.306250 0.0
0.300000 0.306250 0.0
0.342857 0.306250 0.0
0.385714 0.306250 0.0
0.428571 0.306250 0.0
0.471429 0.306250 0.0
0.514286 0.306250 0.0
0.557143 0.306250 0.0
0.600000 0.306250 0.0
0.642857 0.306250 0.0
0.685714 0.306250 0.0
0.728571 0.306250 0.0
0.771429 0.306250 0.0
0.814286 0.306250 0.0
0.857143 0.306250 0.0
0.900000 0.306250 0.0
0.942857 0.306250 0.0
0.985714 0.306250 0.0
1.028571 0.306250 0.0
1.071429 0.306250 0.0
1.114286 0.306250 0.0
1.157143 0.306250 0.0
1.200000 0.306250 0.0
1.242857 0.306250 0.0
1.285714 0.306250 0.0
1.328571 0.306250 0.0
1.371429 0.306250 0.0
1.414286 0.306250 0.0
1.457143 0.306250 0.0
1.500000 0.306250 0.0
0.000000 0.350000 0.0
0.042857 0.350000 0.0
0.085714 0.350000 0.0
0.128571 0.350000 0.0
0.171429 0.350000 0.0
0.214286 0.350000 0.0
0.257143 0.350000 0.0
0.300000 0.350000 0.0
0.342857 0.350000 0.0
0.385714 0.350000 0.0
0.428571 0.350000 0.0
0.471429 0.350000 0.0
0.514286 0.350000 0.0
0.557143 0.350000 0.0
0.600000 0.350000 0.0
0.642857 0.350000 0.0
0.685714 0.350000 0.0
0.728571 0.350000 0.0
0.771429 0.350000 0.0
0.814286 0.350000 0.0
0.857143 0.350000 0.0
0.900000 0.350000 0.0
0.942857 0.350000 0.0
0.985714 0.350000 0.0
1.028571 0.350000 0.0
1.071429 0.350000 0.0
1.114286 0.350000 0.0
1.157143 0.350000 0.0
1.200000 0.350000 0.0
1.242857 0.350000 0.0
1.285714 0.350000 0.0
1.328571 0.350000 0.0
1.371429 0.350000 0.0
1.414286 0.350000 0.0
1.457143 0.350000 0.0
1.500000 0.350000 0.0
0.000000 0.393750 0.0
0.042857 0.393750 0.0
0.085714 0.393750 0.0
0.128571 0.393750 0.0
0.171429 0.393750 0.0
0.214286 0.393750 0.0
0.257143 0.393750 0.0
0.300000 0.393750 0.0
0.342857 0.393750 0.0
0.385714 0.393750 0.0
0.428571 0.393750 0.0
0.471429 0.393750 0.0
0.514286 0.393750 0.0
0.557143 0.393750 0.0
0.600000 0.393750 0.0
0.642857 0.393750 0.0
0.685714 0.393750 0.0
0.728571 0.393750 0.0
0.771429 0.393750 0.0
0.814286 0.393750 0.0
0.857143 0.393750 0.0
0.900000 0.393750 0.0
0.942857 0.393750 0.0
0.985714 0.393750 0.0
1.028571 0.393750 0.0
1.071429 0.393750 0.0
1.114286 0.393750 0.0
1.157143 0.393750 0.0
1.200000 0.393750 0.0
1.242857 0.393750 0.0
1.285714 0.393750 0.0
1.328571 0.393750 0.0
1.371429 0.393750 0.0
1.414286 0.393750 0.0
1.457143 0.393750 0.0
1.500000 0.393750 0.0
0.000000 0.437500 0.0
0.042857 0.437500 0.0
0.085714 0.437500 0.0
0.128571 0.437500 0.0
0.171429 0.437500 0.0
0.214286 0.437500 0.0
0.257143 0.437500 0.0
0.300000 0.437500 0.0
0.342857 0.437500 0.0
0.385714 0.437500 0.0
0.428571 0.437500 0.0
0.471429 0.437500 0.0
0.514286 0.437500 0.0
0.557143 0.437500 0.0
0.600000 0.437500 0.0
0.642857 0.437500 0.0
0.685714 0.437500 0.0
0.728571 0.437500 0.0
0.771429 0.437500 0.0
0.814286 0.437500 0.0
0.857143 0.437500 0.0
0.900000 0.437500 0.0
0.942857 0.437500 0.0
0.985714 0.437500 0.0
1.028571 0.437500 0.0
1.071429 0.437500 0.0
1.114286 0.437500 0.0
1.157143 0.437500 0.0
1.200000 0.437500 0.0
1.242857 0.437500 0.0
1.285714 0.437500 0.0
1.328571 0.437500 0.0
1.371429 0.437500 0.0
1.414286 0.437500 0.0
1.457143 0.437500 0.0
1.500000 0.437500 0.0
0.000000 0.481250 0.0
0.042857 0.481250 0.0
0.085714 0.481250 0.0
0.128571 0.481250 0.0
0.171429 0.481250 0.0
0.214286 0.481250 0.0
0.257143 0.481250 0.0
0.300000 0.481250 0.0
0.342857 0.481250 0.0
0.385714 0.481250 0.0
0.428571 0.481250 0.0
0.471429 0.481250 0.0
0.514286 0.481250 0.0
0.557143 0.481250 0.0
0.600000 0.481250 0.0
0.642857 0.481250 0.0
0.685714 0.481250 0.0
0.728571 0.481250 0.0
0.771429 0.481250 0.0
0.814286 0.481250 0.0
0.857143 0.481250 0.0
0.900000 0.481250 0.0
0.942857 0.481250 0.0
0.985714 0.481250 0.0
1.028571 0.481250 0.0
1.071429 0.481250 0.0
1.114286 0.481250 0.0
1.157143 0.481250 0.0
1.200000 0.481250 0.0
1.242857 0.481250 0.0
1.285714 0.481250 0.0
1.328571 0.481250 0.0
1.371429 0.481250 0.0
1.414286 0.481250 0.0
1.457143 0.481250 0.0
1.500000 0.481250 0.0
0.000000 0.525000 0.0
0.042857 0.525000 0.0
0.085714 0.525000 0.0
0.128571 0.525000 0.0
0.171429 0.525000 0.0
0.214286 0.525000 0.0
0.257143 0.525000 0.0
0.300000 0.525000 0.0
0.342857 0.525000 0.0
0.385714 0.525000 0.0
0.428571 0.525000 0.0
0.471429 0.525000 0.0
0.514286 0.525000 0.0
0.557143 0.525000 0.0
0.600000 0.525000 0.0
0.642857 0.525000 0.0
0.685714 0.525000 0.0
0.728571 0.525000 0.0
0.771429 0.525000 0.0
0.814286 0.525000 0.0
0.857143 0.525000 0.0
0.900000 0.525000 0.0
0.942857 0.525000 0.0
0.985714 0.525000 0.0
1.028571 0.525000 0.0
1.071429 0.525000 0.0
1.114286 0.525000 0.0
1.157143 0.525000 0.0
1.200000 0.525000 0.0
1.242857 0.525000 0.0
1.285714 0.525000 0.0
1.328571 0.525000 0.0
1.371429 0.525000 0.0
1.414286 0.525000 0.0
1.457143 0.525000 0.0
1.500000 0.525000 0.0
0.000000 0.568750 0.0
0.042857 0.568750 0.0
0.085714 0.568750 0.0
0.128571 0.568750 0.0
0.171429 0.568750 0.0
0.214286 0.568750 0.0
0.257143 0.568750 0.0
0.300000 0.568750 0.0
0.342857 0.568750 0.0
0.385714 0.568750 0.0
0.428571 0.568750 0.0
0.471429 0.568750 0.0
0.514286 0.568750 0.0
0.557143 0.568750 0.0
0.600000 0.568750 0.0
0.642857 0.568750 0.0
0.685714 0.568750 0.0
0.728571 0.568750 0.0
0.771429 0.568750 0.0
0.814286 0.568750 0.0
0.857143 0.568750 0.0
0.900000 0.568750 0.0
0.942857 0.568750 0.0
0.985714 0.568750 0.0
1.028571 0.568750 0.0
1.071429 0.568750 0.0
1.114286 0.568750 0.0
1.157143 0.568750 0.0
1.200000 0.568750 0.0
1.242857 0.568750 0.0
1.285714 0.568750 0.0
1.328571 0.568750 0.0
1.371429 0.568750 0.0
1.414286 0.568750 0.0
1.457143 0.568750 0.0
1.500000 0.568750 0.0
0.000000 0.612500 0.0
0.042857 0.612500 0.0
0.085714 0.612500 0.0
0.128571 0.612500 0.0
0.171429 0.612500 0.0
0.214286 0.612500 0.0
0.257143 0.612500 0.0
0.300000 0.612500 0.0
0.342857 0.612500 0.0
0.385714 0.612500 0.0
0.428571 0.612500 0.0
0.471429 0.612500 0.0
0.514286 0.612500 0.0
0.557143 0.612500 0.0
0.600000 0.612500 0.0
0.642857 0.612500 0.0
0.685714 0.612500 0.0
0.728571 0.612500 0.0
0.771429 0.612500 0.0
0.814286 0.612500 0.0
0.857143 0.612500 0.0
0.900000 0.612500 0.0
0.942857 0.612500 0.0
0.985714 0.612500 0.0
1.028571 0.612500 0.0
1.071429 0.612500 0.0
1.114286 0.612500 0.0
1.157143 0.612500 0.0
1.200000 0.612500 0.0
1.242857 0.612500 0.0
1.285714 0.612500 0.0
1.328571 0.612500 0.0
1.371429 0.612500 0.0
1.414286 0.612500 0.0
1.457143 0.612500 0.0
1.500000 0.612500 0.0
0.000000 0.656250 0.0
0.042857 0.656250 0.0
0.085714 0.656250 0.0
0.128571 0.656250 0.0
0.171429 0.656250 0.0
0.214286 0.656250 0.0
0.257143 0.656250 0.0
0.300000 0.656250 0.0
0.342857 0.656250 0.0
0.385714 0.656250 0.0
0.428571 0.656250 0.0
0.471429 0.656250 0.0
0.514286 0.656250 0.0
0.557143 0.656250 0.0
0.600000 0.656250 0.0
0.642857 0.656250 0.0
0.685714 0.656250 0.0
0.728571 0.656250 0.0
0.771429 0.656250 0.0
0.814286 0.656250 0.0
0.857143 0.656250 0.0
0.900000 0.656250 0.0
0.942857 0.656250 0.0
0.985714 0.656250 0.0
1.028571 0.656250 0.0
1.071429 0.656250 0.0
1.114286 0.656250 0.0
1.157143 0.656250 0.0
1.200000 0.656250 0.0
1.242857 0.656250 0.0
1.285714 0.656250 0.0
1.328571 0.656250 0.0
1.371429 0.656250 0.0
1.414286 0.656250 0.0
1.457143 0.656250 0.0
1.500000 0.656250 0.0
0.000000 0.700000 0.0
0.042857 0.700000 0.0
0.085714 0.700000 0.0
0.128571 0.700000 0.0
0.171429 0.700000 0.0
0.214286 0.700000 0.0
0.257143 0.700000 0.0
0.300000 0.700000 0.0
0.342857 0.700000 0.0
0.385714 0.700000 0.0
0.428571 0.700000 0.0
0.471429 0.700000 0.0
0.514286 0.700000 0.0
0.557143 0.700000 0.0
0.600000 0.700000 0.0
0.642857 0.700000 0.0
0.685714 0.700000 0.0
0.728571 0.700000 0.0
0.771429 0.700000 0.0
0.814286 0.700000 0.0
0.857143 0.700000 0.0
0.900000 0.700000 0.0
0.942857 0.700000 0.0
0.985714 0.700000 0.0
1.028571 0.700000 0.0
1.071429 0.700000 0.0
1.114286 0.700000 0.0
1.157143 0.700000 0.0
1.200000 0.700000 0.0
1.242857 0.700000 0.0
1.285714 0.700000 0.0
1.328571 0.700000 0.0
1.371429 0.700000 0.0
1.414286 0.700000 0.0
1.457143 0.700000 0.0
1.500000 0.700000 0.0
0.000000 0.743750 0.0
0.042857 0.743750 0.0
0.085714 0.743750 0.0
0.128571 0.743750 0.0
0.171429 0.743750 0.0
0.214286 0.743750 0.0
0.257143 0.743750 0.0
0.300000 0.743750 0.0
0.342857 0.743750 0.0
0.385714 0.743750 0.0
0.428571 0.743750 0.0
0.471429 0.743750 0.0
0.514286 0.743750 0.0
0.557143 0.743750 0.0
0.600000 0.743750 0.0
0.642857 0.743750 0.0
0.685714 0.743750 0.0
0.728571 0.743750 0.0
0.771429 0.743750 0.0
0.814286 0.743750 0.0
0.857143 0.743750 0.0
0.900000 0.743750 0.0
0.942857 0.743750 0.0
0.985714 0.743750 0.0
1.028571 0.743750 0.0
1.071429 0.743750 0.0
1.114286 0.743750 0.0
1.157143 0.743750 0.0
1.200000 0.743750 0.0
1.242857 0.743750 0.0
1.285714 0.743750 0.0
1.328571 0.743750 0.0
1.371429 0.743750 0.0
1.414286 0.743750 0.0
1.457143 0.743750 0.0
1.500000 0.743750 0.0
0.000000 0.787500 0.0
0.042857 0.787500 0.0
0.085714 0.787500 0.0
0.128571 0.787500 0.0
0.171429 0.787500 0.0
0.214286 0.787500 0.0
0.257143 0.787500 0.0
0.300000 0.787500 0.0
0.342857 0.787500 0.0
0.385714 0.787500 0.0
0.428571 0.787500 0.0
0.471429 0.787500 0.0
0.514286 0.787500 0.0
0.557143 0.787500 0.0
0.600000 0.787500 0.0
0.642857 0.787500 0.0
0.685714 0.787500 0.0
0.728571 0.787500 0.0
0.771429 0.787500 0.0
0.814286 0.787500 0.0
0.857143 0.787500 0.0
0.900000 0.787500 0.0
0.942857 0.787500 0.0
0.985714 0.787500 0.0
1.028571 0.787500 0.0
1.071429 0.787500 0.0
1.114286 0.787500 0.0
1.157143 0.787500 0.0
1.200000 0.787500 0.0
1.242857 0.787500 0.0
1.285714 0.787500 0.0
1.328571 0.787500 0.0
1.371429 0.787500 0.0
1.414286 0.787500 0.0
1.457143 0.787500 0.0
1.500000 0.787500 0.0
0.000000 0.831250 0.0
0.042857 0.831250 0.0
0.085714 0.831250 0.0
0.128571 0.831250 0.0
0.171429 0.831250 0.0
0.214286 0.831250 0.0
0.257143 0.831250 0.0
0.300000 0.831250 0.0
0.342857 0.831250 0.0
0.385714 0.831250 0.0
0.428571 0.831250 0.0
0.471429 0.831250 0.0
0.514286 0.831250 0.0
0.557143 0.831250 0.0
0.600000 0.831250 0.0
0.642857 0.831250 0.0
0.685714 0.831250 0.0
0.728571 0.831250 0.0
0.771429 0.831250 0.0
0.814286 0.831250 0.0
0.857143 0.831250 0.0
0.900000 0.831250 0.0
0.942857 0.831250 0.0
0.985714 0.831250 0.0
1.028571 0.831250 0.0
1.071429 0.831250 0.0
1.114286 0.831250 0.0
1.157143 0.831250 0.0
1.200000 0.831250 0.0
1.242857 0.831250 0.0
1.285714 0.831250 0.0
1.328571 0.831250 0.0
1.371429 0.831250 0.0
1.414286 0.831250 0.0
1.457143 0.831250 0.0
1.500000 0.831250 0.0
0.000000 0.875000 0.0
0.042857 0.875000 0.0
0.085714 0.875000 0.0
0.128571 0.875000 0.0
0.171429 0.875000 0.0
0.214286 0.875000 0.0
0.257143 0.875000 0.0
0.300000 0.875000 0.0
0.342857 0.875000 0.0
0.385714 0.875000 0.0
0.428571 0.875000 0.0
0.471429 0.875000 0.0
0.514286 0.875000 0.0
0.557143 0.875000 0.0
0.600000 0.875000 0.0
0.642857 0.875000 0.0
0.685714 0.875000 0.0
0.728571 0.875000 0.0
0.771429 0.875000 0.0
0.814286 0.875000 0.0
0.857143 0.875000 0.0
0.900000 0.875000 0.0
0.942857 0.875000 0.0
0.985714 0.875000 0.0
1.028571 0.875000 0.0
1.071429 0.875000 0.0
1.114286 0.875000 0.0
1.157143 0.875000 0.0
1.200000 0.875000 0.0
1.242857 0.875000 0.0
1.285714 0.875000 0.0
1.328571 0.875000 0.0
1.371429 0.875000 0.0
1.414286 0.875000 0.0
1.457143 0.875000 0.0
1.500000 0.875000 0.0
</DataArray></Points>
<PointData>
<DataArray NumberOfComponents="1" format="ascii" type ="Float32" Name="phi">
2.019778
2.009713
1.989837
1.970478
1.951665
1.933458
1.915966
1.899397
1.883820
1.869080
1.855090
1.841861
1.829440
1.817874
1.807203
1.797485
1.788750
1.780961
1.774078
1.768057
1.762797
1.758146
1.753905
1.749860
1.745868
1.741864
1.737982
1.734690
1.732424
1.731237
1.731024
1.731717
1.733282
1.735726
1.739061
1.743310
2.000858
1.990656
1.970499
1.950868
1.931818
1.913431
1.895863
1.879248
1.863539
1.848608
1.834420
1.821008
1.808427
1.796731
1.785964
1.776168
1.767344
1.759456
1.752488
1.746404
1.741100
1.736425
1.732177
1.728137
1.724154
1.720156
1.716267
1.712947
1.710652
1.709450
1.709236
1.709938
1.711520
1.713990
1.717362
1.721661
1.963020
1.952532
1.931801
1.911641
1.892161
1.873527
1.855857
1.839053
1.822999
1.807657
1.793070
1.779299
1.766412
1.754491
1.743554
1.733582
1.724550
1.716454
1.709315
1.703103
1.697710
1.692984
1.688720
1.684688
1.680723
1.676739
1.672836
1.669461
1.667107
1.665876
1.665660
1.666379
1.667996
1.670520
1.673967
1.678366
1.925147
1.914368
1.893077
1.872477
1.852781
1.834052
1.816171
1.798982
1.782471
1.766685
1.751706
1.737617
1.724507
1.712411
1.701274
1.691058
1.681775
1.673465
1.666156
1.659812
1.654324
1.649543
1.645259
1.641235
1.637288
1.633321
1.629408
1.625978
1.623563
1.622302
1.622082
1.622820
1.624474
1.627055
1.630579
1.635082
1.887213
1.876176
1.854473
1.833697
1.813928
1.794946
1.776606
1.758908
1.741912
1.725703
1.710404
1.696112
1.682833
1.670497
1.659060
1.648544
1.639003
1.630487
1.623013
1.616534
1.610945
1.606102
1.601794
1.597777
1.593850
1.589902
1.585980
1.582495
1.580018
1.578726
1.578504
1.579260
1.580954
1.583595
1.587201
1.591812
1.849282
1.838144
1.816354
1.795510
1.775424
1.755921
1.737021
1.718797
1.701347
1.684838
1.669367
1.654894
1.641328
1.628632
1.616845
1.606027
1.596240
1.587532
1.579897
1.573274
1.567576
1.562663
1.558327
1.554315
1.550409
1.546482
1.542554
1.539014
1.536473
1.535149
1.534922
1.535698
1.537434
1.540140
1.543834
1.548561
1.811858
1.800729
1.778857
1.757646
1.736975
1.716863
1.697396
1.678707
1.660985
1.644336
1.628657
1.613835
1.599852
1.586756
1.574620
1.563523
1.553529
1.544644
1.536826
1.530038
1.524217
1.519226
1.514857
1.510849
1.506969
1.503063
1.499127
1.495533
1.492927
1.491569
1.491339
1.492135
1.493915
1.496689
1.500478
1.505332
1.775287
1.763997
1.741658
1.719814
1.698493
1.677774
1.657836
1.638917
1.621089
1.604191
1.588085
1.572782
1.558351
1.544866
1.532429
1.521122
1.510943
1.501839
1.493794
1.486822
1.480869
1.475792
1.471385
1.467378
1.463524
1.459640
1.455698
1.452054
1.449380
1.447986
1.447752
1.448570
1.450396
1.453241
1.457130
1.462120
1.739143
1.727516
1.704481
1.681951
1.659999
1.638814
1.618693
1.599682
1.581551
1.564150
1.547499
1.531692
1.516835
1.503045
1.490411
1.478907
1.468465
1.459070
1.450778
1.443620
1.437529
1.432361
1.427910
1.423901
1.420069
1.416208
1.412267
1.408575
1.405833
1.404402
1.404164
1.405005
1.406877
1.409796
1.413789
1.418923
1.703049
1.691051
1.667283
1.644091
1.621701
1.600378
1.580167
1.560793
1.542085
1.524080
1.506870
1.490606
1.475457
1.461487
1.448633
1.436811
1.426013
1.416305
1.407774
1.400433
1.394199
1.388933
1.384432
1.380416
1.376604
1.372767
1.368832
1.365099
1.362288
1.360815
1.360574
1.361439
1.363360
1.366354
1.370456
1.375742
1.666934
1.654570
1.630122
1.606511
1.584029
1.562602
1.541964
1.521945
1.502575
1.483964
1.466283
1.449757
1.434450
1.420217
1.406969
1.394724
1.383549
1.373545
1.364791
1.357267
1.350882
1.345509
1.340949
1.336922
1.333126
1.329316
1.325393
1.321624
1.318745
1.317227
1.316982
1.317872
1.319845
1.322919
1.327133
1.332580
1.630798
1.618154
1.593361
1.569682
1.547047
1.525132
1.503792
1.483056
1.463030
1.443939
1.426043
1.409382
1.393760
1.379045
1.365296
1.352612
1.341085
1.330826
1.321871
1.314146
1.307586
1.302092
1.297463
1.293418
1.289637
1.285855
1.281949
1.278150
1.275205
1.273637
1.273387
1.274305
1.276334
1.279493
1.283825
1.289445
1.594919
1.582256
1.557453
1.533568
1.510357
1.487693
1.465589
1.444153
1.423650
1.404382
1.386358
1.369325
1.353134
1.337843
1.323586
1.310503
1.298710
1.288249
1.279053
1.271075
1.264314
1.258684
1.253975
1.249904
1.246136
1.242384
1.238499
1.234677
1.231664
1.230044
1.229790
1.230736
1.232825
1.236078
1.240539
1.246350
1.560050
1.547344
1.522244
1.497719
1.473714
1.450243
1.427403
1.405497
1.384856
1.365449
1.346981
1.329300
1.312458
1.296594
1.281904
1.268557
1.256568
1.245833
1.236301
1.228032
1.221061
1.215284
1.210487
1.206383
1.202626
1.198905
1.195044
1.191204
1.188123
1.186449
1.186190
1.187166
1.189318
1.192671
1.197276
1.203299
1.526165
1.513129
1.487292
1.461938
1.437094
1.412854
1.389558
1.367544
1.346738
1.326817
1.307625
1.289218
1.271738
1.255419
1.240491
1.226950
1.214633
1.203476
1.193561
1.185004
1.177824
1.171893
1.167000
1.162858
1.159111
1.155422
1.151588
1.147730
1.144580
1.142851
1.142587
1.143594
1.145813
1.149272
1.154032
1.160284
1.492601
1.479142
1.452438
1.426220
1.400603
1.375927
1.352536
1.330307
1.308914
1.288205
1.268219
1.249108
1.231159
1.214638
1.199517
1.185579
1.172742
1.161105
1.150820
1.141996
1.134607
1.128513
1.123516
1.119332
1.115591
1.111940
1.108134
1.104256
1.101037
1.099250
1.098981
1.100022
1.102311
1.105882
1.110807
1.117299
1.459185
1.445279
1.417689
1.390708
1.364702
1.339936
1.316262
1.293363
1.271124
1.249561
1.228810
1.209222
1.191106
1.174381
1.158784
1.144225
1.130811
1.118714
1.108102
1.099033
1.091424
1.085149
1.080039
1.075804
1.072066
1.068455
1.064680
1.060780
1.057491
1.055647
1.055373
1.056451
1.058812
1.062500
1.067602
1.074342
1.425887
1.411561
1.383244
1.355912
1.329816
1.304698
1.280282
1.256485
1.233333
1.210952
1.189718
1.169991
1.151652
1.134374
1.118054
1.102811
1.088848
1.076376
1.065512
1.056185
1.048295
1.041808
1.036569
1.032275
1.028535
1.024963
1.021221
1.017304
1.013945
1.012041
1.011762
1.012879
1.015320
1.019130
1.024422
1.031415
1.392776
1.378221
1.349651
1.322203
1.295670
1.269754
1.244409
1.219659
1.195642
1.172770
1.151413
1.131425
1.112449
1.094358
1.077256
1.061373
1.046999
1.034291
1.023157
1.013452
1.005214
0.998490
0.993107
0.988742
0.984994
0.981459
0.977754
0.973825
0.970398
0.968432
0.968148
0.969307
0.971834
0.975779
0.981276
0.988523
1.360482
1.345888
1.317171
1.289222
1.261833
1.234964
1.208642
1.183016
1.158517
1.135511
1.113830
1.093118
1.073244
1.054276
1.036441
1.020122
1.005539
0.992550
0.980952
0.970761
0.962162
0.955195
0.949651
0.945206
0.941444
0.937940
0.934275
0.930342
0.926850
0.924819
0.924529
0.925733
0.928354
0.932448
0.938169
0.945673
1.337102
1.314728
1.285397
1.256563
1.228203
1.200345
1.173152
1.147067
1.122425
1.099024
1.076531
1.054844
1.034002
1.014211
0.995910
0.979401
0.964515
0.950973
0.938761
0.928080
0.919143
0.911926
0.906204
0.901666
0.897884
0.894408
0.890781
0.886854
0.883302
0.881202
0.880906
0.882158
0.884880
0.889136
0.895103
0.902865
</DataArray>
<DataArray NumberOfComponents="1" format="ascii" type ="Float32" Name="u">
0.000000
0.000000
0.000000
0.000000
0.000000
0.000000
0.000000
0.000000
0.000000
0.000000
0.000000
0.000000
0.000000
0.000000
0.000000
0.000000
0.000000
0.000000
0.000000
0.000000
0.000000
0.000000
0.000000
0.000000
0.000000
0.000000
0.000000
0.000000
0.000000
0.000000
0.000000
0.000000
0.000000
0.000000
0.000000
0.000000
0.004248
0.004248
0.004245
0.004235
0.004217
0.004189
0.004149
0.004098
0.004033
0.003954
0.003860
0.003750
0.003624
0.003482
0.003323
0.003150
0.002964
0.002766
0.002561
0.002352
0.002140
0.001931
0.001726
0.001529
0.001342
0.001165
0.001001
0.000849
0.000709
0.000581
0.000463
0.000354
0.000253
0.000158
0.000067
-0.000021
0.007765
0.007765
0.007760
0.007746
0.007720
0.007679
0.007621
0.007545
0.007448
0.007329
0.007186
0.007016
0.006820
0.006595
0.006342
0.006063
0.005758
0.005432
0.005087
0.004728
0.004360
0.003989
0.003620
0.003257
0.002904
0.002564
0.002240
0.001933
0.001642
0.001369
0.001111
0.000867
0.000634
0.000411
0.000195
-0.000016
0.010453
0.010453
0.010448
0.010433
0.010404
0.010360
0.010297
0.010212
0.010104
0.009970
0.009806
0.009610
0.009381
0.009115
0.008814
0.008475
0.008102
0.007697
0.007264
0.006807
0.006332
0.005845
0.005353
0.004862
0.004377
0.003903
0.003442
0.002998
0.002572
0.002163
0.001772
0.001396
0.001034
0.000682
0.000339
0.000001
0.012380
0.012380
0.012375
0.012361
0.012333
0.012290
0.012228
0.012145
0.012037
0.011901
0.011733
0.011531
0.011292
0.011011
0.010688
0.010323
0.009914
0.009465
0.008979
0.008460
0.007915
0.007350
0.006771
0.006187
0.005603
0.005026
0.004459
0.003906
0.003369
0.002849
0.002345
0.001858
0.001384
0.000922
0.000468
0.000020
0.013692
0.013692
0.013688
0.013675
0.013650
0.013610
0.013552
0.013474
0.013373
0.013243
0.013082
0.012885
0.012648
0.012367
0.012041
0.011666
0.011243
0.010772
0.010256
0.009699
0.009108
0.008489
0.007850
0.007199
0.006543
0.005889
0.005241
0.004606
0.003985
0.003379
0.002790
0.002216
0.001656
0.001108
0.000569
0.000035
0.014552
0.014552
0.014548
0.014536
0.014514
0.014479
0.014428
0.014358
0.014266
0.014147
0.013997
0.013812
0.013586
0.013315
0.012995
0.012623
0.012197
0.011717
0.011185
0.010605
0.009983
0.009326
0.008643
0.007942
0.007231
0.006518
0.005810
0.005112
0.004427
0.003759
0.003106
0.002470
0.001848
0.001238
0.000637
0.000043
0.015102
0.015102
0.015099
0.015089
0.015070
0.015041
0.014997
0.014937
0.014856
0.014751
0.014617
0.014448
0.014239
0.013985
0.013679
0.013317
0.012897
0.012417
0.011878
0.011284
0.010639
0.009953
0.009234
0.008491
0.007735
0.006975
0.006217
0.005469
0.004735
0.004018
0.003319
0.002638
0.001972
0.001320
0.000679
0.000044
0.015454
0.015454
0.015452
0.015445
0.015430
0.015405
0.015370
0.015321
0.015254
0.015166
0.015051
0.014903
0.014716
0.014483
0.014197
0.013853
0.013446
0.012973
0.012434
0.011831
0.011170
0.010459
0.009708
0.008928
0.008131
0.007326
0.006524
0.005732
0.004955
0.004198
0.003462
0.002746
0.002049
0.001369
0.000701
0.000041
0.015687
0.015687
0.015686
0.015680
0.015669
0.015651
0.015625
0.015589
0.015537
0.015468
0.015375
0.015252
0.015091
0.014886
0.014628
0.014309
0.013922
0.013463
0.012930
0.012324
0.011651
0.010918
0.010137
0.009320
0.008481
0.007632
0.006784
0.005948
0.005130
0.004335
0.003565
0.002820
0.002099
0.001397
0.000711
0.000035
0.015850
0.015850
0.015849
0.015846
0.015839
0.015828
0.015812
0.015789
0.015755
0.015707
0.015639
0.015544
0.015416
0.015244
0.015020
0.014733
0.014374
0.013938
0.013418
0.012816
0.012135
0.011383
0.010573
0.009719
0.008835
0.007938
0.007042
0.006158
0.005295
0.004460
0.003655
0.002881
0.002136
0.001416
0.000715
0.000029
0.015971
0.015971
0.015972
0.015971
0.015969
0.015965
0.015960
0.015951
0.015936
0.015910
0.015870
0.015808
0.015717
0.015585
0.015402
0.015156
0.014835
0.014429
0.013933
0.013342
0.012659
0.011893
0.011055
0.010162
0.009231
0.008282
0.007330
0.006392
0.005478
0.004596
0.003751
0.002944
0.002173
0.001434
0.000719
0.000023
0.016068
0.016068
0.016069
0.016071
0.016073
0.016077
0.016083
0.016089
0.016093
0.016093
0.016083
0.016057
0.016007
0.015921
0.015787
0.015590
0.015318
0.014955
0.014492
0.013922
0.013246
0.012470
0.011608
0.010676
0.009696
0.008689
0.007675
0.006674
0.005699
0.004762
0.003869
0.003022
0.002220
0.001457
0.000727
0.000019
0.016147
0.016147
0.016149
0.016152
0.016160
0.016171
0.016188
0.016210
0.016234
0.016260
0.016282
0.016295
0.016290
0.016255
0.016178
0.016041
0.015828
0.015520
0.015103
0.014567
0.013909
0.013133
0.012251
0.011283
0.010251
0.009181
0.008098
0.007025
0.005979
0.004976
0.004024
0.003128
0.002286
0.001494
0.000742
0.000019
0.016209
0.016209
0.016212
0.016219
0.016231
0.016250
0.016278
0.016315
0.016360
0.016412
0.016468
0.016521
0.016565
0.016587
0.016573
0.016505
0.016362
0.016123
0.015767
0.015280
0.014654
0.013889
0.012996
0.011996
0.010914
0.009778
0.008619
0.007464
0.006336
0.005255
0.004232
0.003274
0.002382
0.001551
0.000770
0.000026
0.016257
0.016257
0.016261
0.016270
0.016286
0.016313
0.016352
0.016404
0.016469
0.016548
0.016637
0.016732
0.016827
0.016909
0.016965
0.016974
0.016914
0.016758
0.016480
0.016059
0.015481
0.014742
0.013851
0.012827
0.011698
0.010497
0.009257
0.008012
0.006791
0.005618
0.004509
0.003476
0.002520
0.001638
0.000819
0.000046
0.016289
0.016289
0.016294
0.016305
0.016326
0.016360
0.016409
0.016475
0.016561
0.016665
0.016787
0.016924
0.017070
0.017216
0.017346
0.017440
0.017473
0.017414
0.017232
0.016896
0.016385
0.015691
0.014818
0.013783
0.012615
0.011351
0.010029
0.008688
0.007364
0.006085
0.004876
0.003751
0.002716
0.001768
0.000896
0.000081
0.016305
0.016305
0.016311
0.016324
0.016349
0.016389
0.016448
0.016528
0.016632
0.016760
0.016914
0.017092
0.017289
0.017499
0.017707
0.017892
0.018028
0.018080
0.018010
0.017779
0.017359
0.016731
0.015895
0.014865
0.013671
0.012351
0.010949
0.009509
0.008074
0.006679
0.005354
0.004120
0.002987
0.001955
0.001013
0.000139
0.016305
0.016305
0.016312
0.016327
0.016355
0.016401
0.016468
0.016560
0.016680
0.016832
0.017015
0.017232
0.017480
0.017753
0.018039
0.018320
0.018567
0.018742
0.018800
0.018696
0.018389
0.017851
0.017075
0.016070
0.014866
0.013502
0.012027