<VTKFile type="StructuredGrid" version="0.1" byte_order="LittleEndian">
<StructuredGrid WholeExtent="1 71 1 81 0 0">
<Piece Extent="1 36 21 41 0 0">
<PointData></PointData>
<CellData></CellData>
<Points>
<DataArray NumberOfComponents="3" format="ascii" type ="Float32" Name="mesh">
0.000000 0.875000 0.0
0.042857 0.875000 0.0
0.085714 0.875000 0.0
0.128571 0.875000 0.0
0.171429 0.875000 0.0
0.214286 0.875000 0.0
0.257143 0.875000 0.0
0.300000 0.875000 0.0
0.342857 0.875000 0.0
0.385714 0.875000 0.0
0.428571 0.875000 0.0
0.471429 0.875000 0.0
0.514286 0.875000 0.0
0.557143 0.875000 0.0
0.600000 0.875000 0.0
0.642857 0.875000 0.0
0.685714 0.875000 0.0
0.728571 0.875000 0.0
0.771429 0.875000 0.0
0.814286 0.875000 0.0
0.857143 0.875000 0.0
0.900000 0.875000 0.0
0.942857 0.875000 0.0
0.985714 0.875000 0.0
1.028571 0.875000 0.0
1.071429 0.875000 0.0
1.114286 0.875000 0.0
1.157143 0.875000 0.0
1.200000 0.875000 0.0
1.242857 0.875000 0.0
1.285714 0.875000 0.0
1.328571 0.875000 0.0
1.371429 0.875000 0.0
1.414286 0.875000 0.0
1.457143 0.875000 0.0
1.500000 0.875000 0.0
0.000000 0.918750 0.0
0.042857 0.918750 0.0
0.085714 0.918750 0.0
0.128571 0.918750 0.0
0.171429 0.918750 0.0
0.214286 0.918750 0.0
0.257143 0.918750 0.0
0.300000 0.918750 0.0
0.342857 0.918750 0.0
0.385714 0.918750 0.0
0.428571 0.918750 0.0
0.471429 0.918750 0.0
0.514286 0.918750 0.0
0.557143 0.918750 0.0
0.600000 0.918750 0.0
0.642857 0.918750 0.0
0.685714 0.918750 0.0
0.728571 0.918750 0.0
0.771429 0.918750 0.0
0.814286 0.918750 0.0
0.857143 0.918750 0.0
0.900000 0.918750 0.0
0.942857 0.918750 0.0
0.985714 0.918750 0.0
1.028571 0.918750 0.0
1.071429 0.918750 0.0
1.114286 0.918750 0.0
1.157143 0.918750 0.0
1.200000 0.918750 0.0
1.242857 0.918750 0.0
1.285714 0.918750 0.0
1.328571 0.918750 0.0
1.371429 0.918750 0.0
1.414286 0.918750 0.0
1.457143 0.918750 0.0
1.500000 0.918750 0.0
0.000000 0.962500 0.0
0.042857 0.962500 0.0
0.085714 0.962500 0.0
0.128571 0.962500 0.0
0.171429 0.962500 0.0
0.214286 0.962500 0.0
0.257143 0.962500 0.0
0.300000 0.962500 0.0
0.342857 0.962500 0.0
0.385714 0.962500 0.0
0.428571 0.962500 0.0
0.471429 0.962500 0.0
0.514286 0.962500 0.0
0.557143 0.962500 0.0
0.600000 0.962500 0.0
0.642857 0.962500 0.0
0.685714 0.962500 0.0
0.728571 0.962500 0.0
0.771429 0.962500 0.0
0.814286 0.962500 0.0
0.857143 0.962500 0.0
0.900000 0.962500 0.0
0.942857 0.962500 0.0
0.985714 0.962500 0.0
1.028571 0.962500 0.0
1.071429 0.962500 0.0
1.114286 0.962500 0.0
1.157143 0.962500 0.0
1.200000 0.962500 0.0
1.242857 0.962500 0.0
1.285714 0.962500 0.0
1.328571 0.962500 0.0
1.371429 0.962500 0.0
1.414286 0.962500 0.0
1.457143 0.962500 0.0
1.500000 0.962500 0.0
0.000000 1.006250 0.0
0.042857 1.006250 0.0
0.085714 1.006250 0.0
0.128571 1.006250 0.0
0.171429 1.006250 0.0
0.214286 1.006250 0.0
0.257143 1.006250 0.0
0.300000 1.006250 0.0
0.342857 1.006250 0.0
0.385714 1.006250 0.0
0.428571 1.006250 0.0
0.471429 1.006250 0.0
0.514286 1.006250 0.0
0.557143 1.006250 0.0
0.600000 1.006250 0.0
0.642857 1.006250 0.0
0.685714 1.006250 0.0
0.728571 1.006250 0.0
0.771429 1.006250 0.0
0.814286 1.006250 0.0
0.857143 1.006250 0.0
0.900000 1.006250 0.0
0.942857 1.006250 0.0
0.985714 1.006250 0.0
1.028571 1.006250 0.0
1.071429 1.006250 0.0
1.114286 1.006250 0.0
1.157143 1.006250 0.0
1.200000 1.006250 0.0
1.242857 1.006250 0.0
1.285714 1.006250 0.0
1.328571 1.006250 0.0
1.371429 1.006250 0.0
1.414286 1.006250 0.0
1.457143 1.006250 0.0
1.500000 1.006250 0.0
0.000000 1.050000 0.0
0.042857 1.050000 0.0
0.085714 1.050000 0.0
0.128571 1.050000 0.0
0.171429 1.050000 0.0
0.214286 1.050000 0.0
0.257143 1.050000 0.0
0.300000 1.050000 0.0
0.342857 1.050000 0.0
0.385714 1.050000 0.0
0.428571 1.050000 0.0
0.471429 1.050000 0.0
0.514286 1.050000 0.0
0.557143 1.050000 0.0
0.600000 1.050000 0.0
0.642857 1.050000 0.0
0.685714 1.050000 0.0
0.728571 1.050000 0.0
0.771429 1.050000 0.0
0.814286 1.050000 0.0
0.857143 1.050000 0.0
0.900000 1.050000 0.0
0.942857 1.050000 0.0
0.985714 1.050000 0.0
1.028571 1.050000 0.0
1.071429 1.050000 0.0
1.114286 1.050000 0.0
1.157143 1.050000 0.0
1.200000 1.050000 0.0
1.242857 1.050000 0.0
1.285714 1.050000 0.0
1.328571 1.050000 0.0
1.371429 1.050000 0.0
1.414286 1.050000 0.0
1.457143 1.050000 0.0
1.500000 1.050000 0.0
0.000000 1.093750 0.0
0.042857 1.093750 0.0
0.085714 1.093750 0.0
0.128571 1.093750 0.0
0.171429 1.093750 0.0
0.214286 1.093750 0.0
0.257143 1.093750 0.0
0.300000 1.093750 0.0
0.342857 1.093750 0.0
0.385714 1.093750 0.0
0.428571 1.093750 0.0
0.471429 1.093750 0.0
0.514286 1.093750 0.0
0.557143 1.093750 0.0
0.600000 1.093750 0.0
0.642857 1.093750 0.0
0.685714 1.093750 0.0
0.728571 1.093750 0.0
0.771429 1.093750 0.0
0.814286 1.093750 0.0
0.857143 1.093750 0.0
0.900000 1.093750 0.0
0.942857 1.093750 0.0
0.985714 1.093750 0.0
1.028571 1.093750 0.0
1.071429 1.093750 0.0
1.114286 1.093750 0.0
1.157143 1.093750 0.0
1.200000 1.093750 0.0
1.242857 1.093750 0.0
1.285714 1.093750 0.0
1.328571 1.093750 0.0
1.371429 1.093750 0.0
1.414286 1.093750 0.0
1.457143 1.093750 0.0
1.500000 1.093750 0.0
0.000000 1.137500 0.0
0.042857 1.137500 0.0
0.085714 1.137500 0.0
0.128571 1.137500 0.0
0.171429 1.137500 0.0
0.214286 1.137500 0.0
0.257143 1.137500 0.0
0.300000 1.137500 0.0
0.342857 1.137500 0.0
0.385714 1.137500 0.0
0.428571 1.137500 0.0
0.471429 1.137500 0.0
0.514286 1.137500 0.0
0.557143 1.137500 0.0
0.600000 1.137500 0.0
0.642857 1.137500 0.0
0.685714 1.137500 0.0
0.728571 1.137500 0.0
0.771429 1.137500 0.0
0.814286 1.137500 0.0
0.857143 1.137500 0.0
0.900000 1.137500 0.0
0.942857 1.137500 0.0
0.985714 1.137500 0.0
1.028571 1.137500 0.0
1.071429 1.137500 0.0
1.114286 1.137500 0.0
1.157143 1.137500 0.0
1.200000 1.137500 0.0
1.242857 1.137500 0.0
1.285714 1.137500 0.0
1.328571 1.137500 0.0
1.371429 1.137500 0.0
1.414286 1.137500 0.0
1.457143 1.137500 0.0
1.500000 1.137500 0.0
0.000000 1.181250 0.0
0.042857 1.181250 0.0
0.085714 1.181250 0.0
0.128571 1.181250 0.0
0.171429 1.181250 0.0
0.214286 1.181250 0.0
0.257143 1.181250 0.0
0.300000 1.181250 0.0
0.342857 1.181250 0.0
0.385714 1.181250 0.0
0.428571 1.181250 0.0
0.471429 1.181250 0.0
0.514286 1.181250 0.0
0.557143 1.181250 0.0
0.600000 1.181250 0.0
0.642857 1.181250 0.0
0.685714 1.181250 0.0
0.728571 1.181250 0.0
0.771429 1.181250 0.0
0.814286 1.181250 0.0
0.857143 1.181250 0.0
0.900000 1.181250 0.0
0.942857 1.181250 0.0
0.985714 1.181250 0.0
1.028571 1.181250 0.0
1.071429 1.181250 0.0
1.114286 1.181250 0.0
1.157143 1.181250 0.0
1.200000 1.181250 0.0
1.242857 1.181250 0.0
1.285714 1.181250 0.0
1.328571 1.181250 0.0
1.371429 1.181250 0.0
1.414286 1.181250 0.0
1.457143 1.181250 0.0
1.500000 1.181250 0.0
0.000000 1.225000 0.0
0.042857 1.225000 0.0
0.085714 1.225000 0.0
0.128571 1.225000 0.0
0.171429 1.225000 0.0
0.214286 1.225000 0.0
0.257143 1.225000 0.0
0.300000 1.225000 0.0
0.342857 1.225000 0.0
0.385714 1.225000 0.0
0.428571 1.225000 0.0
0.471429 1.225000 0.0
0.514286 1.225000 0.0
0.557143 1.225000 0.0
0.600000 1.225000 0.0
0.642857 1.225000 0.0
0.685714 1.225000 0.0
0.728571 1.225000 0.0
0.771429 1.225000 0.0
0.814286 1.225000 0.0
0.857143 1.225000 0.0
0.900000 1.225000 0.0
0.942857 1.225000 0.0
0.985714 1.225000 0.0
1.028571 1.225000 0.0
1.071429 1.225000 0.0
1.114286 1.225000 0.0
1.157143 1.225000 0.0
1.200000 1.225000 0.0
1.242857 1.225000 0.0
1.285714 1.225000 0.0
1.328571 1.225000 0.0
1.371429 1.225000 0.0
1.414286 1.225000 0.0
1.457143 1.225000 0.0
1.500000 1.225000 0.0
0.000000 1.268750 0.0
0.042857 1.268750 0.0
0.085714 1.268750 0.0
0.128571 1.268750 0.0
0.171429 1.268750 0.0
0.214286 1.268750 0.0
0.257143 1.268750 0.0
0.300000 1.268750 0.0
0.342857 1.268750 0.0
0.385714 1.268750 0.0
0.428571 1.268750 0.0
0.471429 1.268750 0.0
0.514286 1.268750 0.0
0.557143 1.268750 0.0
0.600000 1.268750 0.0
0.642857 1.268750 0.0
0.685714 1.268750 0.0
0.728571 1.268750 0.0
0.771429 1.268750 0.0
0.814286 1.268750 0.0
0.857143 1.268750 0.0
0.900000 1.268750 0.0
0.942857 1.268750 0.0
0.985714 1.268750 0.0
1.028571 1.268750 0.0
1.071429 1.268750 0.0
1.114286 1.268750 0.0
1.157143 1.268750 0.0
1.200000 1.268750 0.0
1.242857 1.268750 0.0
1.285714 1.268750 0.0
1.328571 1.268750 0.0
1.371429 1.268750 0.0
1.414286 1.268750 0.0
1.457143 1.268750 0.0
1.500000 1.268750 0.0
0.000000 1.312500 0.0
0.042857 1.312500 0.0
0.085714 1.312500 0.0
0.128571 1.312500 0.0
0.171429 1.312500 0.0
0.214286 1.312500 0.0
0.257143 1.312500 0.0
0.300000 1.312500 0.0
0.342857 1.312500 0.0
0.385714 1.312500 0.0
0.428571 1.312500 0.0
0.471429 1.312500 0.0
0.514286 1.312500 0.0
0.557143 1.312500 0.0
0.600000 1.312500 0.0
0.642857 1.312500 0.0
0.685714 1.312500 0.0
0.728571 1.312500 0.0
0.771429 1.312500 0.0
0.814286 1.312500 0.0
0.857143 1.312500 0.0
0.900000 1.312500 0.0
0.942857 1.312500 0.0
0.985714 1.312500 0.0
1.028571 1.312500 0.0
1.071429 1.312500 0.0
1.114286 1.312500 0.0
1.157143 1.312500 0.0
1.200000 1.312500 0.0
1.242857 1.312500 0.0
1.285714 1.312500 0.0
1.328571 1.312500 0.0
1.371429 1.312500 0.0
1.414286 1.312500 0.0
1.457143 1.312500 0.0
1.500000 1.312500 0.0
0.000000 1.356250 0.0
0.042857 1.356250 0.0
0.085714 1.356250 0.0
0.128571 1.356250 0.0
0.171429 1.356250 0.0
0.214286 1.356250 0.0
0.257143 1.356250 0.0
0.300000 1.356250 0.0
0.342857 1.356250 0.0
0.385714 1.356250 0.0
0.428571 1.356250 0.0
0.471429 1.356250 0.0
0.514286 1.356250 0.0
0.557143 1.356250 0.0
0.600000 1.356250 0.0
0.642857 1.356250 0.0
0.685714 1.356250 0.0
0.728571 1.356250 0.0
0.771429 1.356250 0.0
0.814286 1.356250 0.0
0.857143 1.356250 0.0
0.900000 1.356250 0.0
0.942857 1.356250 0.0
0.985714 1.356250 0.0
1.028571 1.356250 0.0
1.071429 1.356250 0.0
1.114286 1.356250 0.0
1.157143 1.356250 0.0
1.200000 1.356250 0.0
1.242857 1.356250 0.0
1.285714 1.356250 0.0
1.328571 1.356250 0.0
1.371429 1.356250 0.0
1.414286 1.356250 0.0
1.457143 1.356250 0.0
1.500000 1.356250 0.0
0.000000 1.400000 0.0
0.042857 1.400000 0.0
0.085714 1.400000 0.0
0.128571 1.400000 0.0
0.171429 1.400000 0.0
0.214286 1.400000 0.0
0.257143 1.400000 0.0
0.300000 1.400000 0.0
0.342857 1.400000 0.0
0.385714 1.400000 0.0
0.428571 1.400000 0.0
0.471429 1.400000 0.0
0.514286 1.400000 0.0
0.557143 1.400000 0.0
0.600000 1.400000 0.0
0.642857 1.400000 0.0
0.685714 1.400000 0.0
0.728571 1.400000 0.0
0.771429 1.400000 0.0
0.814286 1.400000 0.0
0.857143 1.400000 0.0
0.900000 1.400000 0.0
0.942857 1.400000 0.0
0.985714 1.400000 0.0
1.028571 1.400000 0.0
1.071429 1.400000 0.0
1.114286 1.400000 0.0
1.157143 1.400000 0.0
1.200000 1.400000 0.0
1.242857 1.400000 0.0
1.285714 1.400000 0.0
1.328571 1.400000 0.0
1.371429 1.400000 0.0
1.414286 1.400000 0.0
1.457143 1.400000 0.0
1.500000 1.400000 0.0
0.000000 1.443750 0.0
0.042857 1.443750 0.0
0.085714 1.443750 0.0
0.128571 1.443750 0.0
0.171429 1.443750 0.0
0.214286 1.443750 0.0
0.257143 1.443750 0.0
0.300000 1.443750 0.0
0.342857 1.443750 0.0
0.385714 1.443750 0.0
0.428571 1.443750 0.0
0.471429 1.443750 0.0
0.514286 1.443750 0.0
0.557143 1.443750 0.0
0.600000 1.443750 0.0
0.642857 1.443750 0.0
0.685714 1.443750 0.0
0.728571 1.443750 0.0
0.771429 1.443750 0.0
0.814286 1.443750 0.0
0.857143 1.443750 0.0
0.900000 1.443750 0.0
0.942857 1.443750 0.0
0.985714 1.443750 0.0
1.028571 1.443750 0.0
1.071429 1.443750 0.0
1.114286 1.443750 0.0
1.157143 1.443750 0.0
1.200000 1.443750 0.0
1.242857 1.443750 0.0
1.285714 1.443750 0.0
1.328571 1.443750 0.0
1.371429 1.443750 0.0
1.414286 1.443750 0.0
1.457143 1.443750 0.0
1.500000 1.443750 0.0
0.000000 1.487500 0.0
0.042857 1.487500 0.0
0.085714 1.487500 0.0
0.128571 1.487500 0.0
0.171429 1.487500 0.0
0.214286 1.487500 0.0
0.257143 1.487500 0.0
0.300000 1.487500 0.0
0.342857 1.487500 0.0
0.385714 1.487500 0.0
0.428571 1.487500 0.0
0.471429 1.487500 0.0
0.514286 1.487500 0.0
0.557143 1.487500 0.0
0.600000 1.487500 0.0
0.642857 1.487500 0.0
0.685714 1.487500 0.0
0.728571 1.487500 0.0
0.771429 1.487500 0.0
0.814286 1.487500 0.0
0.857143 1.487500 0.0
0.900000 1.487500 0.0
0.942857 1.487500 0.0
0.985714 1.487500 0.0
1.028571 1.487500 0.0
1.071429 1.487500 0.0
1.114286 1.487500 0.0
1.157143 1.487500 0.0
1.200000 1.487500 0.0
1.242857 1.487500 0.0
1.285714 1.487500 0.0
1.328571 1.487500 0.0
1.371429 1.487500 0.0
1.414286 1.487500 0.0
1.457143 1.487500 0.0
1.500000 1.487500 0.0
0.000000 1.531250 0.0
0.042857 1.531250 0.0
0.085714 1.531250 0.0
0.128571 1.531250 0.0
0.171429 1.531250 0.0
0.214286 1.531250 0.0
0.257143 1.531250 0.0
0.300000 1.531250 0.0
0.342857 1.531250 0.0
0.385714 1.531250 0.0
0.428571 1.531250 0.0
0.471429 1.531250 0.0
0.514286 1.531250 0.0
0.557143 1.531250 0.0
0.600000 1.531250 0.0
0.642857 1.531250 0.0
0.685714 1.531250 0.0
0.728571 1.531250 0.0
0.771429 1.531250 0.0
0.814286 1.531250 0.0
0.857143 1.531250 0.0
0.900000 1.531250 0.0
0.942857 1.531250 0.0
0.985714 1.531250 0.0
1.028571 1.531250 0.0
1.071429 1.531250 0.0
1.114286 1.531250 0.0
1.157143 1.531250 0.0
1.200000 1.531250 0.0
1.242857 1.531250 0.0
1.285714 1.531250 0.0
1.328571 1.531250 0.0
1.371429 1.531250 0.0
1.414286 1.531250 0.0
1.457143 1.531250 0.0
1.500000 1.531250 0.0
0.000000 1.575000 0.0
0.042857 1.575000 0.0
0.085714 1.575000 0.0
0.128571 1.575000 0.0
0.171429 1.575000 0.0
0.214286 1.575000 0.0
0.257143 1.575000 0.0
0.300000 1.575000 0.0
0.342857 1.575000 0.0
0.385714 1.575000 0.0
0.428571 1.575000 0.0
0.471429 1.575000 0.0
0.514286 1.575000 0.0
0.557143 1.575000 0.0
0.600000 1.575000 0.0
0.642857 1.575000 0.0
0.685714 1.575000 0.0
0.728571 1.575000 0.0
0.771429 1.575000 0.0
0.814286 1.575000 0.0
0.857143 1.575000 0.0
0.900000 1.575000 0.0
0.942857 1.575000 0.0
0.985714 1.575000 0.0
1.028571 1.575000 0.0
1.071429 1.575000 0.0
1.114286 1.575000 0.0
1.157143 1.575000 0.0
1.200000 1.575000 0.0
1.242857 1.575000 0.0
1.285714 1.575000 0.0
1.328571 1.575000 0.0
1.371429 1.575000 0.0
1.414286 1.575000 0.0
1.457143 1.575000 0.0
1.500000 1.575000 0.0
0.000000 1.618750 0.0
0.042857 1.618750 0.0
0.085714 1.618750 0.0
0.128571 1.618750 0.0
0.171429 1.618750 0.0
0.214286 1.618750 0.0
0.257143 1.618750 0.0
0.300000 1.618750 0.0
0.342857 1.618750 0.0
0.385714 1.618750 0.0
0.428571 1.618750 0.0
0.471429 1.618750 0.0
0.514286 1.618750 0.0
0.557143 1.618750 0.0
0.600000 1.618750 0.0
0.642857 1.618750 0.0
0.685714 1.618750 0.0
0.728571 1.618750 0.0
0.771429 1.618750 0.0
0.814286 1.618750 0.0
0.857143 1.618750 0.0
0.900000 1.618750 0.0
0.942857 1.618750 0.0
0.985714 1.618750 0.0
1.028571 1.618750 0.0
1.071429 1.618750 0.0
1.114286 1.618750 0.0
1.157143 1.618750 0.0
1.200000 1.618750 0.0
1.242857 1.618750 0.0
1.285714 1.618750 0.0
1.328571 1.618750 0.0
1.371429 1.618750 0.0
1.414286 1.618750 0.0
1.457143 1.618750 0.0
1.500000 1.618750 0.0
0.000000 1.662500 0.0
0.042857 1.662500 0.0
0.085714 1.662500 0.0
0.128571 1.662500 0.0
0.171429 1.662500 0.0
0.214286 1.662500 0.0
0.257143 1.662500 0.0
0.300000 1.662500 0.0
0.342857 1.662500 0.0
0.385714 1.662500 0.0
0.428571 1.662500 0.0
0.471429 1.662500 0.0
0.514286 1.662500 0.0
0.557143 1.662500 0.0
0.600000 1.662500 0.0
0.642857 1.662500 0.0
0.685714 1.662500 0.0
0.728571 1.662500 0.0
0.771429 1.662500 0.0
0.814286 1.662500 0.0
0.857143 1.662500 0.0
0.900000 1.662500 0.0
0.942857 1.662500 0.0
0.985714 1.662500 0.0
1.028571 1.662500 0.0
1.071429 1.662500 0.0
1.114286 1.662500 0.0
1.157143 1.662500 0.0
1.200000 1.662500 0.0
1.242857 1.662500 0.0
1.285714 1.662500 0.0
1.328571 1.662500 0.0
1.371429 1.662500 0.0
1.414286 1.662500 0.0
1.457143 1.662500 0.0
1.500000 1.662500 0.0
0.000000 1.706250 0.0
0.042857 1.706250 0.0
0.085714 1.706250 0.0
0.128571 1.706250 0.0
0.171429 1.706250 0.0
0.214286 1.706250 0.0
0.257143 1.706250 0.0
0.300000 1.706250 0.0
0.342857 1.706250 0.0
0.385714 1.706250 0.0
0.428571 1.706250 0.0
0.471429 1.706250 0.0
0.514286 1.706250 0.0
0.557143 1.706250 0.0
0.600000 1.706250 0.0
0.642857 1.706250 0.0
0.685714 1.706250 0.0
0.728571 1.706250 0.0
0.771429 1.706250 0.0
0.814286 1.706250 0.0
0.857143 1.706250 0.0
0.900000 1.706250 0.0
0.942857 1.706250 0.0
0.985714 1.706250 0.0
1.028571 1.706250 0.0
1.071429 1.706250 0.0
1.114286 1.706250 0.0
1.157143 1.706250 0.0
1.200000 1.706250 0.0
1.242857 1.706250 0.0
1.285714 1.706250 0.0
1.328571 1.706250 0.0
1.371429 1.706250 0.0
1.414286 1.706250 0.0
1.457143 1.706250 0.0
1.500000 1.706250 0.0
0.000000 1.750000 0.0
0.042857 1.750000 0.0
0.085714 1.750000 0.0
0.128571 1.750000 0.0
0.171429 1.750000 0.0
0.214286 1.750000 0.0
0.257143 1.750000 0.0
0.300000 1.750000 0.0
0.342857 1.750000 0.0
0.385714 1.750000 0.0
0.428571 1.750000 0.0
0.471429 1.750000 0.0
0.514286 1.750000 0.0
0.557143 1.750000 0.0
0.600000 1.750000 0.0
0.642857 1.750000 0.0
0.685714 1.750000 0.0
0.728571 1.750000 0.0
0.771429 1.750000 0.0
0.814286 1.750000 0.0
0.857143 1.750000 0.0
0.900000 1.750000 0.0
0.942857 1.750000 0.0
0.985714 1.750000 0.0
1.028571 1.750000 0.0
1.071429 1.750000 0.0
1.114286 1.750000 0.0
1.157143 1.750000 0.0
1.200000 1.750000 0.0
1.242857 1.750000 0.0
1.285714 1.750000 0.0
1.328571 1.750000 0.0
1.371429 1.750000 0.0
1.414286 1.750000 0.0
1.457143 1.750000 0.0
1.500000 1.750000 0.0
</DataArray></Points>
<PointData>
<DataArray NumberOfComponents="1" format="ascii" type ="Float32" Name="phi">
1.373972
1.368233
1.340206
1.313737
1.288641
1.264239
1.240293
1.216822
1.193948
1.172060
1.151732
1.133186
1.116087
1.100079
1.085142
1.071405
1.059063
1.048374
1.039463
1.032280
1.026764
1.022915
1.020800
1.020581
1.022255
1.025694
1.030876
1.037829
1.046603
1.057196
1.069615
1.083651
1.098656
1.113914
1.128927
1.135679
1.348513
1.334311
1.306634
1.280134
1.254277
1.228793
1.203693
1.179116
1.155464
1.133415
1.113207
1.094356
1.076491
1.059578
1.043761
1.029328
1.016575
1.005681
0.996586
0.989145
0.983354
0.979297
0.977072
0.976836
0.978585
0.982188
0.987616
0.994863
1.004001
1.015080
1.028057
1.042542
1.057766
1.073074
1.087967
1.095659
1.316087
1.302022
1.274216
1.246908
1.219920
1.193247
1.167005
1.141638
1.117893
1.096005
1.075410
1.055666
1.036763
1.018845
1.002238
0.987367
0.974458
0.963380
0.953919
0.946060
0.939930
0.935659
0.933337
0.933090
0.934909
0.938681
0.944382
0.951989
0.961552
0.973152
0.986673
1.001548
1.016940
1.032236
1.046904
1.055619
1.285379
1.270939
1.242201
1.213734
1.185526
1.157681
1.130657
1.105245
1.081679
1.059329
1.037717
1.016830
0.996804
0.977998
0.960971
0.946007
0.932892
0.921327
0.911275
0.902923
0.896463
0.892009
0.889603
0.889350
0.891241
0.895178
0.901167
0.909184
0.919248
0.931418
0.945459
0.960656
0.976165
0.991376
1.005705
1.015477
1.255227
1.240221
1.210303
1.180595
1.151193
1.122576
1.095544
1.070295
1.046193
1.022736
0.999884
0.977783
0.956787
0.937578
0.920538
0.905328
0.891581
0.879250
0.868523
0.859702
0.852979
0.848384
0.845887
0.845617
0.847595
0.851702
0.857980
0.866442
0.877078
0.889864
0.904406
0.919855
0.935411
0.950444
0.964348
0.975151
1.225290
1.209676
1.178516
1.147614
1.117475
1.088868
1.061950
1.036088
1.010809
0.986050
0.961909
0.938765
0.917385
0.898236
0.880911
0.864904
0.850195
0.837002
0.825657
0.816493
0.809589
0.804834
0.802188
0.801882
0.803974
0.808290
0.814866
0.823787
0.835064
0.848497
0.863492
0.879124
0.894643
0.909386
0.922824
0.934571
1.195514
1.179295
1.146976
1.115381
1.085283
1.056737
1.029133
1.002042
0.975407
0.949295
0.924057
0.900536
0.879272
0.859791
0.841516
0.824373
0.808598
0.794622
0.782877
0.773524
0.766387
0.761338
0.758485
0.758136
0.760356
0.764942
0.771879
0.781291
0.793233
0.807305
0.822683
0.838439
0.853851
0.868182
0.881168
0.893511
1.165904
1.149214
1.116310
1.084767
1.054679
1.025401
0.996548
0.968073
0.940034
0.912775
0.887168
0.863784
0.842124
0.821563
0.801998
0.783620
0.766891
0.752443
0.740535
0.730896
0.723291
0.717829
0.714761
0.714379
0.716732
0.721627
0.729017
0.739001
0.751608
0.766266
0.781951
0.797766
0.812984
0.826828
0.839452
0.851896
1.136784
1.120074
1.087318
1.055747
1.024889
0.994369
0.964139
0.934251
0.905052
0.877429
0.851945
0.828087
0.805235
0.783252
0.762288
0.742787
0.725533
0.710962
0.698712
0.688411
0.680152
0.674267
0.671023
0.670631
0.673115
0.678337
0.686253
0.696914
0.710204
0.725372
0.741277
0.757062
0.771963
0.785310
0.797691
0.810100
1.109400
1.092777
1.059903
1.027557
0.995476
0.963605
0.931992
0.900986
0.871446
0.843908
0.817859
0.792710
0.768350
0.744840
0.722590
0.702495
0.685158
0.670199
0.657075
0.645837
0.636907
0.630674
0.627298
0.626914
0.629532
0.635083
0.643586
0.655020
0.669017
0.684611
0.700657
0.716324
0.730765
0.743636
0.755874
0.768348
1.084078
1.067122
1.033355
0.999814
0.966424
0.933227
0.900567
0.869249
0.839751
0.811579
0.784181
0.757460
0.731470
0.706546
0.683632
0.663474
0.645698
0.629666
0.615323
0.603111
0.593621
0.587148
0.583627
0.583218
0.586013
0.591922
0.601064
0.613337
0.628028
0.643959
0.660063
0.675498
0.689384
0.701851
0.714049
0.726638
1.059826
1.042301
1.007331
0.972522
0.937896
0.903750
0.870802
0.839463
0.809281
0.779749
0.750768
0.722373
0.694873
0.669224
0.646230
0.625553
0.606535
0.589027
0.573393
0.560357
0.550505
0.543802
0.540004
0.539512
0.542546
0.548918
0.558776
0.571901
0.587218
0.603383
0.619437
0.634489
0.647806
0.660000
0.672245
0.684996
1.036113
1.018033
0.981868
0.945894
0.910458
0.876048
0.842992
0.810926
0.779404
0.748318
0.717686
0.687784
0.659527
0.633746
0.610133
0.588057
0.567362
0.548258
0.531477
0.517936
0.507787
0.500602
0.496373
0.495784
0.499103
0.506078
0.516770
0.530731
0.546561
0.562868
0.578765
0.593280
0.606057
0.618097
0.630450
0.643412
1.012624
0.994236
0.957308
0.920625
0.884902
0.850269
0.816441
0.783075
0.750060
0.717404
0.685343
0.654687
0.626238
0.599746
0.574621
0.550712
0.528158
0.507582
0.490117
0.476246
0.465416
0.457400
0.452700
0.452045
0.455682
0.463388
0.475034
0.489806
0.506022
0.522384
0.537999
0.551875
0.564191
0.576168
0.588683
0.601890
0.988592
0.970764
0.934328
0.897395
0.861215
0.825743
0.790669
0.755896
0.721442
0.687520
0.654735
0.623784
0.594551
0.566499
0.539467
0.513532
0.489213
0.467743
0.449887
0.435168
0.423103
0.414112
0.409010
0.408350
0.412336
0.420873
0.433561
0.449085
0.465587
0.481897
0.497043
0.510257
0.522255
0.534247
0.546974
0.560421
0.960133
0.945798
0.913018
0.875883
0.838771
0.802097
0.765730
0.729687
0.694189
0.659599
0.626375
0.594561
0.563781
0.533838
0.504749
0.476908
0.451502
0.429519
0.410630
0.394284
0.380697
0.370788
0.365358
0.364736
0.369148
0.378602
0.392374
0.408548
0.425217
0.441330
0.455836
0.468441
0.480260
0.492333
0.505320
0.518979
0.923212
0.916089
0.891720
0.855436
0.817341
0.779459
0.742044
0.705191
0.669087
0.633888
0.599691
0.566398
0.533825
0.501933
0.470984
0.441938
0.415867
0.392682
0.371840
0.353431
0.338286
0.327632
0.321831
0.321156
0.326148
0.336680
0.351507
0.368165
0.384847
0.400581
0.414371
0.426495
0.438234
0.450458
0.463739
0.477534
0.880608
0.879833
0.866748
0.835509
0.797133
0.758422
0.720289
0.682871
0.646041
0.609784
0.574191
0.539275
0.504993
0.471497
0.439313
0.409388
0.381989
0.356668
0.333369
0.312727
0.296227
0.284880
0.278421
0.277556
0.283329
0.295150
0.310940
0.327935
0.344479
0.359609
0.372677
0.384472
0.396209
0.408666
0.422242
0.436052
0.836896
0.838253
0.835312
0.814492
0.778492
0.739405
0.700591
0.662367
0.624499
0.586996
0.549999
0.513687
0.478143
0.443503
0.410242
0.378868
0.349330
0.321408
0.295454
0.272806
0.255087
0.242554
0.235021
0.233961
0.240709
0.253982
0.270610
0.287756
0.303964
0.318341
0.330788
0.342386
0.354182
0.366958
0.380795
0.394485
0.793153
0.794685
0.797271
0.788755
0.760480
0.722010
0.682563
0.643339
0.604392
0.565781
0.527738
0.490434
0.453844
0.418012
0.383269
0.349932
0.317947
0.287357
0.259019
0.234615
0.215127
0.200515
0.191609
0.190475
0.198402
0.213178
0.230450
0.247498
0.263152
0.276777
0.288769
0.300260
0.312188
0.325343
0.339425
0.352873
0.760350
0.751044
0.754883
0.755318
0.739272
0.705549
0.666015
0.625870
0.585990
0.546633
0.507859
0.469618
0.431819
0.394567
0.358159
0.322822
0.288592
0.255749
0.225324
0.198632
0.176212
0.158761
0.148278
0.147178
0.156557
0.172789
0.190465
0.207175
0.222054
0.234989
0.246676
0.258132
0.270280
0.283841
0.298128
0.311153
</DataArray>
<DataArray NumberOfComponents="1" format="ascii" type ="Float32" Name="u">
0.000000
0.017101
0.017104
0.017113
0.017133
0.017169
0.017227
0.017312
0.017429
0.017582
0.017776
0.018013
0.018293
0.018611
0.018951
0.019290
0.019589
0.019798
0.019860
0.019718
0.019332
0.018680
0.017767
0.016619
0.015277
0.013792
0.012219
0.010607
0.009005
0.007454
0.005988
0.004629
0.003393
0.002279
0.001275
0.000352
0.017097
0.017097
0.017100
0.017109
0.017131
0.017171
0.017235
0.017329
0.017458
0.017629
0.017846
0.018116
0.018439
0.018815
0.019232
0.019670
0.020090
0.020438
0.020649
0.020656
0.020404
0.019861
0.019023
0.017913
0.016574
0.015058
0.013423
0.011725
0.010017
0.008345
0.006748
0.005254
0.003881
0.002635
0.001502
0.000455
0.017065
0.017065
0.017068
0.017079
0.017103
0.017147
0.017218
0.017321
0.017462
0.017650
0.017889
0.018188
0.018552
0.018983
0.019474
0.020008
0.020550
0.021043
0.021415
0.021586
0.021487
0.021072
0.020330
0.019278
0.017957
0.016424
0.014739
0.012961
0.011149
0.009352
0.007615
0.005972
0.004445
0.003042
0.001753
0.000548
0.017004
0.017004
0.017008
0.017020
0.017048
0.017097
0.017174
0.017286
0.017441
0.017644
0.017906
0.018233
0.018635
0.019117
0.019678
0.020306
0.020969
0.021610
0.022150
0.022499
0.022570
0.022304
0.021677
0.020701
0.019417
0.017881
0.016156
0.014307
0.012393
0.010471
0.008587
0.006780
0.005078
0.003492
0.002014
0.000617
0.016913
0.016913
0.016918
0.016932
0.016963
0.017017
0.017103
0.017226
0.017394
0.017615
0.017898
0.018253
0.018691
0.019222
0.019850
0.020568
0.021349
0.022139
0.022854
0.023390
0.023647
0.023547
0.023053
0.022171
0.020940
0.019417
0.017666
0.015755
0.013745
0.011696
0.009658
0.007674
0.005776
0.003979
0.002279
0.000649
0.016792
0.016792
0.016797
0.016814
0.016849
0.016909
0.017004
0.017139
0.017322
0.017562
0.017868
0.018251
0.018725
0.019304
0.019995
0.020800
0.021697
0.022634
0.023526
0.024258
0.024712
0.024792
0.024448
0.023678
0.022517
0.021022
0.019259
0.017297
0.015199
0.013025
0.010828
0.008655
0.006539
0.004501
0.002542
0.000638
0.016638
0.016638
0.016645
0.016663
0.016703
0.016771
0.016876
0.017025
0.017226
0.017486
0.017818
0.018232
0.018744
0.019370
0.020124
0.021012
0.022021
0.023104
0.024173
0.025105
0.025762
0.026033
0.025852
0.025208
0.024133
0.022683
0.020924
0.018925
0.016748
0.014454
0.012097
0.009724
0.007372
0.005066
0.002809
0.000588
0.016450
0.016450
0.016457
0.016479
0.016524
0.016602
0.016719
0.016884
0.017105
0.017390
0.017750
0.018199
0.018752
0.019428
0.020245
0.021217
0.022335
0.023560
0.024803
0.025933
0.026798
0.027266
0.027256
0.026749
0.025773
0.024384
0.022646
0.020626
0.018385
0.015982
0.013468
0.010890
0.008288
0.005687
0.003100
0.000518
0.016224
0.016224
0.016233
0.016258
0.016310
0.016398
0.016530
0.016714
0.016959
0.017273
0.017667
0.018155
0.018754
0.019485
0.020370
0.021425
0.022651
0.024013
0.025425
0.026749
0.027818
0.028483
0.028647
0.028285
0.027419
0.026105
0.024406
0.022384
0.020097
0.017599
0.014939
0.012160
0.009300
0.006389
0.003442
0.000463
0.015957
0.015957
0.015967
0.015997
0.016057
0.016158
0.016307
0.016515
0.016788
0.017136
0.017570
0.018104
0.018756
0.019549
0.020506
0.021648
0.022981
0.024475
0.026048
0.027556
0.028821
0.029675
0.030011
0.029794
0.029045
0.027818
0.026174
0.024170
0.021859
0.019289
0.016501
0.013534
0.010423
0.007194
0.003871
0.000466
0.015645
0.015645
0.015657
0.015692
0.015762
0.015877
0.016048
0.016282
0.016589
0.016977
0.017458
0.018047
0.018761
0.019623
0.020660
0.021893
0.023333
0.024955
0.026678
0.028356
0.029801
0.030831
0.031327
0.031249
0.030618
0.029486
0.027911
0.025945
0.023635
0.021019
0.018131
0.015000
0.011655
0.008120
0.004419
0.000575
0.015282
0.015282
0.015297
0.015338
0.015420
0.015553
0.015748
0.016014
0.016360
0.016796
0.017332
0.017983
0.018768
0.019710
0.020834
0.022164
0.023710
0.025452
0.027312
0.029143
0.030747
0.031931
0.032568
0.032616
0.032097
0.031061
0.029565
0.027656
0.025370
0.022738
0.019782
0.016521
0.012974
0.009158
0.005095
0.000816
0.014864
0.014864
0.014881
0.014930
0.015026
0.015180
0.015404
0.015707
0.016099
0.016588
0.017187
0.017911
0.018777
0.019806
0.021024
0.022453
0.024103
0.025957
0.027938
0.029899
0.031637
0.032948
0.033700
0.033853
0.033430
0.032486
0.031072
0.029232
0.026992
0.024372
0.021383
0.018032
0.014323
0.010265
0.005874
0.001184
0.014383
0.014383
0.014404
0.014462
0.014574
0.014753
0.015010
0.015356
0.015799
0.016350
0.017020
0.017824
0.018778
0.019902
0.021217
0.022744
0.024493
0.026444
0.028528
0.030597
0.032440
0.033847
0.034682
0.034909
0.034561
0.033693
0.032357
0.030589
0.028409
0.025824
0.022834
0.019430
0.015603
0.011348
0.006673
0.001612
0.013832
0.013832
0.013858
0.013927
0.014058
0.014265
0.014560
0.014953
0.015454
0.016073
0.016820
0.017710
0.018757
0.019977
0.021389
0.023008
0.024841
0.026874
0.029040
0.031192
0.033114
0.034583
0.035462
0.035728
0.035423
0.034609
0.033336
0.031634
0.029514
0.026976
0.024004
0.020576
0.016667
0.012256
0.007342
0.001962
0.013204
0.013204
0.013234
0.013316
0.013469
0.013708
0.014046
0.014491
0.015054
0.015745
0.016573
0.017551
0.018690
0.020003
0.021501
0.023196
0.025095
0.027187
0.029413
0.031629
0.033605
0.035104
0.035987
0.036248
0.035948
0.035154
0.033917
0.032260
0.030188
0.027690
0.024737
0.021294
0.017318
0.012775
0.007661
0.002029
0.012489
0.012489
0.012525
0.012622
0.012800
0.013074
0.013457
0.013957
0.014585
0.015348
0.016256
0.017318
0.018541
0.019933
0.021499
0.023247
0.025184
0.027308
0.029574
0.031839
0.033853
0.035352
0.036197
0.036404
0.036061
0.035245
0.034004
0.032358
0.030301
0.027811
0.024851
0.021369
0.017310
0.012637
0.007366
0.001596
0.011678
0.011678
0.011722
0.011835
0.012039
0.012351
0.012779
0.013335
0.014025
0.014856
0.015836
0.016970
0.018261
0.019708
0.021313
0.023080
0.025021
0.027150
0.029438
0.031746
0.033792
0.035268
0.036030
0.036129
0.035686
0.034794
0.033498
0.031806
0.029706
0.027165
0.024133
0.020550
0.016365
0.011572
0.006245
0.000566
0.010762
0.010762
0.010814
0.010945
0.011176
0.011523
0.011996
0.012602
0.013346
0.014235
0.015271
0.016455
0.017784
0.019253
0.020857
0.022602
0.024510
0.026614
0.028912
0.031269
0.033357
0.034796
0.035428
0.035354
0.034745
0.033709
0.032285