<VTKFile type="StructuredGrid" version="0.1" byte_order="LittleEndian">
<StructuredGrid WholeExtent="1 71 1 81 0 0">
<Piece Extent="36 71 21 41 0 0">
<PointData></PointData>
<CellData></CellData>
<Points>
<DataArray NumberOfComponents="3" format="ascii" type ="Float32" Name="mesh">
1.500000 0.875000 0.0
1.542857 0.875000 0.0
1.585714 0.875000 0.0
1.628571 0.875000 0.0
1.671429 0.875000 0.0
1.714286 0.875000 0.0
1.757143 0.875000 0.0
1.800000 0.875000 0.0
1.842857 0.875000 0.0
1.885714 0.875000 0.0
1.928571 0.875000 0.0
1.971429 0.875000 0.0
2.014286 0.875000 0.0
2.057143 0.875000 0.0
2.100000 0.875000 0.0
2.142857 0.875000 0.0
2.185714 0.875000 0.0
2.228571 0.875000 0.0
2.271429 0.875000 0.0
2.314286 0.875000 0.0
2.357143 0.875000 0.0
2.400000 0.875000 0.0
2.442857 0.875000 0.0
2.485714 0.875000 0.0
2.528571 0.875000 0.0
2.571429 0.875000 0.0
2.614286 0.875000 0.0
2.657143 0.875000 0.0
2.700000 0.875000 0.0
2.742857 0.875000 0.0
2.785714 0.875000 0.0
2.828571 0.875000 0.0
2.871429 0.875000 0.0
2.914286 0.875000 0.0
2.957143 0.875000 0.0
3.000000 0.875000 0.0
1.500000 0.918750 0.0
1.542857 0.918750 0.0
1.585714 0.918750 0.0
1.628571 0.918750 0.0
1.671429 0.918750 0.0
1.714286 0.918750 0.0
1.757143 0.918750 0.0
1.800000 0.918750 0.0
1.842857 0.918750 0.0
1.885714 0.918750 0.0
1.928571 0.918750 0.0
1.971429 0.918750 0.0
2.014286 0.918750 0.0
2.057143 0.918750 0.0
2.100000 0.918750 0.0
2.142857 0.918750 0.0
2.185714 0.918750 0.0
2.228571 0.918750 0.0
2.271429 0.918750 0.0
2.314286 0.918750 0.0
2.357143 0.918750 0.0
2.400000 0.918750 0.0
2.442857 0.918750 0.0
2.485714 0.918750 0.0
2.528571 0.918750 0.0
2.571429 0.918750 0.0
2.614286 0.918750 0.0
2.657143 0.918750 0.0
2.700000 0.918750 0.0
2.742857 0.918750 0.0
2.785714 0.918750 0.0
2.828571 0.918750 0.0
2.871429 0.918750 0.0
2.914286 0.918750 0.0
2.957143 0.918750 0.0
3.000000 0.918750 0.0
1.500000 0.962500 0.0
1.542857 0.962500 0.0
1.585714 0.962500 0.0
1.628571 0.962500 0.0
1.671429 0.962500 0.0
1.714286 0.962500 0.0
1.757143 0.962500 0.0
1.800000 0.962500 0.0
1.842857 0.962500 0.0
1.885714 0.962500 0.0
1.928571 0.962500 0.0
1.971429 0.962500 0.0
2.014286 0.962500 0.0
2.057143 0.962500 0.0
2.100000 0.962500 0.0
2.142857 0.962500 0.0
2.185714 0.962500 0.0
2.228571 0.962500 0.0
2.271429 0.962500 0.0
2.314286 0.962500 0.0
2.357143 0.962500 0.0
2.400000 0.962500 0.0
2.442857 0.962500 0.0
2.485714 0.962500 0.0
2.528571 0.962500 0.0
2.571429 0.962500 0.0
2.614286 0.962500 0.0
2.657143 0.962500 0.0
2.700000 0.962500 0.0
2.742857 0.962500 0.0
2.785714 0.962500 0.0
2.828571 0.962500 0.0
2.871429 0.962500 0.0
2.914286 0.962500 0.0
2.957143 0.962500 0.0
3.000000 0.962500 0.0
1.500000 1.006250 0.0
1.542857 1.006250 0.0
1.585714 1.006250 0.0
1.628571 1.006250 0.0
1.671429 1.006250 0.0
1.714286 1.006250 0.0
1.757143 1.006250 0.0
1.800000 1.006250 0.0
1.842857 1.006250 0.0
1.885714 1.006250 0.0
1.928571 1.006250 0.0
1.971429 1.006250 0.0
2.014286 1.006250 0.0
2.057143 1.006250 0.0
2.100000 1.006250 0.0
2.142857 1.006250 0.0
2.185714 1.006250 0.0
2.228571 1.006250 0.0
2.271429 1.006250 0.0
2.314286 1.006250 0.0
2.357143 1.006250 0.0
2.400000 1.006250 0.0
2.442857 1.006250 0.0
2.485714 1.006250 0.0
2.528571 1.006250 0.0
2.571429 1.006250 0.0
2.614286 1.006250 0.0
2.657143 1.006250 0.0
2.700000 1.006250 0.0
2.742857 1.006250 0.0
2.785714 1.006250 0.0
2.828571 1.006250 0.0
2.871429 1.006250 0.0
2.914286 1.006250 0.0
2.957143 1.006250 0.0
3.000000 1.006250 0.0
1.500000 1.050000 0.0
1.542857 1.050000 0.0
1.585714 1.050000 0.0
1.628571 1.050000 0.0
1.671429 1.050000 0.0
1.714286 1.050000 0.0
1.757143 1.050000 0.0
1.800000 1.050000 0.0
1.842857 1.050000 0.0
1.885714 1.050000 0.0
1.928571 1.050000 0.0
1.971429 1.050000 0.0
2.014286 1.050000 0.0
2.057143 1.050000 0.0
2.100000 1.050000 0.0
2.142857 1.050000 0.0
2.185714 1.050000 0.0
2.228571 1.050000 0.0
2.271429 1.050000 0.0
2.314286 1.050000 0.0
2.357143 1.050000 0.0
2.400000 1.050000 0.0
2.442857 1.050000 0.0
2.485714 1.050000 0.0
2.528571 1.050000 0.0
2.571429 1.050000 0.0
2.614286 1.050000 0.0
2.657143 1.050000 0.0
2.700000 1.050000 0.0
2.742857 1.050000 0.0
2.785714 1.050000 0.0
2.828571 1.050000 0.0
2.871429 1.050000 0.0
2.914286 1.050000 0.0
2.957143 1.050000 0.0
3.000000 1.050000 0.0
1.500000 1.093750 0.0
1.542857 1.093750 0.0
1.585714 1.093750 0.0
1.628571 1.093750 0.0
1.671429 1.093750 0.0
1.714286 1.093750 0.0
1.757143 1.093750 0.0
1.800000 1.093750 0.0
1.842857 1.093750 0.0
1.885714 1.093750 0.0
1.928571 1.093750 0.0
1.971429 1.093750 0.0
2.014286 1.093750 0.0
2.057143 1.093750 0.0
2.100000 1.093750 0.0
2.142857 1.093750 0.0
2.185714 1.093750 0.0
2.228571 1.093750 0.0
2.271429 1.093750 0.0
2.314286 1.093750 0.0
2.357143 1.093750 0.0
2.400000 1.093750 0.0
2.442857 1.093750 0.0
2.485714 1.093750 0.0
2.528571 1.093750 0.0
2.571429 1.093750 0.0
2.614286 1.093750 0.0
2.657143 1.093750 0.0
2.700000 1.093750 0.0
2.742857 1.093750 0.0
2.785714 1.093750 0.0
2.828571 1.093750 0.0
2.871429 1.093750 0.0
2.914286 1.093750 0.0
2.957143 1.093750 0.0
3.000000 1.093750 0.0
1.500000 1.137500 0.0
1.542857 1.137500 0.0
1.585714 1.137500 0.0
1.628571 1.137500 0.0
1.671429 1.137500 0.0
1.714286 1.137500 0.0
1.757143 1.137500 0.0
1.800000 1.137500 0.0
1.842857 1.137500 0.0
1.885714 1.137500 0.0
1.928571 1.137500 0.0
1.971429 1.137500 0.0
2.014286 1.137500 0.0
2.057143 1.137500 0.0
2.100000 1.137500 0.0
2.142857 1.137500 0.0
2.185714 1.137500 0.0
2.228571 1.137500 0.0
2.271429 1.137500 0.0
2.314286 1.137500 0.0
2.357143 1.137500 0.0
2.400000 1.137500 0.0
2.442857 1.137500 0.0
2.485714 1.137500 0.0
2.528571 1.137500 0.0
2.571429 1.137500 0.0
2.614286 1.137500 0.0
2.657143 1.137500 0.0
2.700000 1.137500 0.0
2.742857 1.137500 0.0
2.785714 1.137500 0.0
2.828571 1.137500 0.0
2.871429 1.137500 0.0
2.914286 1.137500 0.0
2.957143 1.137500 0.0
3.000000 1.137500 0.0
1.500000 1.181250 0.0
1.542857 1.181250 0.0
1.585714 1.181250 0.0
1.628571 1.181250 0.0
1.671429 1.181250 0.0
1.714286 1.181250 0.0
1.757143 1.181250 0.0
1.800000 1.181250 0.0
1.842857 1.181250 0.0
1.885714 1.181250 0.0
1.928571 1.181250 0.0
1.971429 1.181250 0.0
2.014286 1.181250 0.0
2.057143 1.181250 0.0
2.100000 1.181250 0.0
2.142857 1.181250 0.0
2.185714 1.181250 0.0
2.228571 1.181250 0.0
2.271429 1.181250 0.0
2.314286 1.181250 0.0
2.357143 1.181250 0.0
2.400000 1.181250 0.0
2.442857 1.181250 0.0
2.485714 1.181250 0.0
2.528571 1.181250 0.0
2.571429 1.181250 0.0
2.614286 1.181250 0.0
2.657143 1.181250 0.0
2.700000 1.181250 0.0
2.742857 1.181250 0.0
2.785714 1.181250 0.0
2.828571 1.181250 0.0
2.871429 1.181250 0.0
2.914286 1.181250 0.0
2.957143 1.181250 0.0
3.000000 1.181250 0.0
1.500000 1.225000 0.0
1.542857 1.225000 0.0
1.585714 1.225000 0.0
1.628571 1.225000 0.0
1.671429 1.225000 0.0
1.714286 1.225000 0.0
1.757143 1.225000 0.0
1.800000 1.225000 0.0
1.842857 1.225000 0.0
1.885714 1.225000 0.0
1.928571 1.225000 0.0
1.971429 1.225000 0.0
2.014286 1.225000 0.0
2.057143 1.225000 0.0
2.100000 1.225000 0.0
2.142857 1.225000 0.0
2.185714 1.225000 0.0
2.228571 1.225000 0.0
2.271429 1.225000 0.0
2.314286 1.225000 0.0
2.357143 1.225000 0.0
2.400000 1.225000 0.0
2.442857 1.225000 0.0
2.485714 1.225000 0.0
2.528571 1.225000 0.0
2.571429 1.225000 0.0
2.614286 1.225000 0.0
2.657143 1.225000 0.0
2.700000 1.225000 0.0
2.742857 1.225000 0.0
2.785714 1.225000 0.0
2.828571 1.225000 0.0
2.871429 1.225000 0.0
2.914286 1.225000 0.0
2.957143 1.225000 0.0
3.000000 1.225000 0.0
1.500000 1.268750 0.0
1.542857 1.268750 0.0
1.585714 1.268750 0.0
1.628571 1.268750 0.0
1.671429 1.268750 0.0
1.714286 1.268750 0.0
1.757143 1.268750 0.0
1.800000 1.268750 0.0
1.842857 1.268750 0.0
1.885714 1.268750 0.0
1.928571 1.268750 0.0
1.971429 1.268750 0.0
2.014286 1.268750 0.0
2.057143 1.268750 0.0
2.100000 1.268750 0.0
2.142857 1.268750 0.0
2.185714 1.268750 0.0
2.228571 1.268750 0.0
2.271429 1.268750 0.0
2.314286 1.268750 0.0
2.357143 1.268750 0.0
2.400000 1.268750 0.0
2.442857 1.268750 0.0
2.485714 1.268750 0.0
2.528571 1.268750 0.0
2.571429 1.268750 0.0
2.614286 1.268750 0.0
2.657143 1.268750 0.0
2.700000 1.268750 0.0
2.742857 1.268750 0.0
2.785714 1.268750 0.0
2.828571 1.268750 0.0
2.871429 1.268750 0.0
2.914286 1.268750 0.0
2.957143 1.268750 0.0
3.000000 1.268750 0.0
1.500000 1.312500 0.0
1.542857 1.312500 0.0
1.585714 1.312500 0.0
1.628571 1.312500 0.0
1.671429 1.312500 0.0
1.714286 1.312500 0.0
1.757143 1.312500 0.0
1.800000 1.312500 0.0
1.842857 1.312500 0.0
1.885714 1.312500 0.0
1.928571 1.312500 0.0
1.971429 1.312500 0.0
2.014286 1.312500 0.0
2.057143 1.312500 0.0
2.100000 1.312500 0.0
2.142857 1.312500 0.0
2.185714 1.312500 0.0
2.228571 1.312500 0.0
2.271429 1.312500 0.0
2.314286 1.312500 0.0
2.357143 1.312500 0.0
2.400000 1.312500 0.0
2.442857 1.312500 0.0
2.485714 1.312500 0.0
2.528571 1.312500 0.0
2.571429 1.312500 0.0
2.614286 1.312500 0.0
2.657143 1.312500 0.0
2.700000 1.312500 0.0
2.742857 1.312500 0.0
2.785714 1.312500 0.0
2.828571 1.312500 0.0
2.871429 1.312500 0.0
2.914286 1.312500 0.0
2.957143 1.312500 0.0
3.000000 1.312500 0.0
1.500000 1.356250 0.0
1.542857 1.356250 0.0
1.585714 1.356250 0.0
1.628571 1.356250 0.0
1.671429 1.356250 0.0
1.714286 1.356250 0.0
1.757143 1.356250 0.0
1.800000 1.356250 0.0
1.842857 1.356250 0.0
1.885714 1.356250 0.0
1.928571 1.356250 0.0
1.971429 1.356250 0.0
2.014286 1.356250 0.0
2.057143 1.356250 0.0
2.100000 1.356250 0.0
2.142857 1.356250 0.0
2.185714 1.356250 0.0
2.228571 1.356250 0.0
2.271429 1.356250 0.0
2.314286 1.356250 0.0
2.357143 1.356250 0.0
2.400000 1.356250 0.0
2.442857 1.356250 0.0
2.485714 1.356250 0.0
2.528571 1.356250 0.0
2.571429 1.356250 0.0
2.614286 1.356250 0.0
2.657143 1.356250 0.0
2.700000 1.356250 0.0
2.742857 1.356250 0.0
2.785714 1.356250 0.0
2.828571 1.356250 0.0
2.871429 1.356250 0.0
2.914286 1.356250 0.0
2.957143 1.356250 0.0
3.000000 1.356250 0.0
1.500000 1.400000 0.0
1.542857 1.400000 0.0
1.585714 1.400000 0.0
1.628571 1.400000 0.0
1.671429 1.400000 0.0
1.714286 1.400000 0.0
1.757143 1.400000 0.0
1.800000 1.400000 0.0
1.842857 1.400000 0.0
1.885714 1.400000 0.0
1.928571 1.400000 0.0
1.971429 1.400000 0.0
2.014286 1.400000 0.0
2.057143 1.400000 0.0
2.100000 1.400000 0.0
2.142857 1.400000 0.0
2.185714 1.400000 0.0
2.228571 1.400000 0.0
2.271429 1.400000 0.0
2.314286 1.400000 0.0
2.357143 1.400000 0.0
2.400000 1.400000 0.0
2.442857 1.400000 0.0
2.485714 1.400000 0.0
2.528571 1.400000 0.0
2.571429 1.400000 0.0
2.614286 1.400000 0.0
2.657143 1.400000 0.0
2.700000 1.400000 0.0
2.742857 1.400000 0.0
2.785714 1.400000 0.0
2.828571 1.400000 0.0
2.871429 1.400000 0.0
2.914286 1.400000 0.0
2.957143 1.400000 0.0
3.000000 1.400000 0.0
1.500000 1.443750 0.0
1.542857 1.443750 0.0
1.585714 1.443750 0.0
1.628571 1.443750 0.0
1.671429 1.443750 0.0
1.714286 1.443750 0.0
1.757143 1.443750 0.0
1.800000 1.443750 0.0
1.842857 1.443750 0.0
1.885714 1.443750 0.0
1.928571 1.443750 0.0
1.971429 1.443750 0.0
2.014286 1.443750 0.0
2.057143 1.443750 0.0
2.100000 1.443750 0.0
2.142857 1.443750 0.0
2.185714 1.443750 0.0
2.228571 1.443750 0.0
2.271429 1.443750 0.0
2.314286 1.443750 0.0
2.357143 1.443750 0.0
2.400000 1.443750 0.0
2.442857 1.443750 0.0
2.485714 1.443750 0.0
2.528571 1.443750 0.0
2.571429 1.443750 0.0
2.614286 1.443750 0.0
2.657143 1.443750 0.0
2.700000 1.443750 0.0
2.742857 1.443750 0.0
2.785714 1.443750 0.0
2.828571 1.443750 0.0
2.871429 1.443750 0.0
2.914286 1.443750 0.0
2.957143 1.443750 0.0
3.000000 1.443750 0.0
1.500000 1.487500 0.0
1.542857 1.487500 0.0
1.585714 1.487500 0.0
1.628571 1.487500 0.0
1.671429 1.487500 0.0
1.714286 1.487500 0.0
1.757143 1.487500 0.0
1.800000 1.487500 0.0
1.842857 1.487500 0.0
1.885714 1.487500 0.0
1.928571 1.487500 0.0
1.971429 1.487500 0.0
2.014286 1.487500 0.0
2.057143 1.487500 0.0
2.100000 1.487500 0.0
2.142857 1.487500 0.0
2.185714 1.487500 0.0
2.228571 1.487500 0.0
2.271429 1.487500 0.0
2.314286 1.487500 0.0
2.357143 1.487500 0.0
2.400000 1.487500 0.0
2.442857 1.487500 0.0
2.485714 1.487500 0.0
2.528571 1.487500 0.0
2.571429 1.487500 0.0
2.614286 1.487500 0.0
2.657143 1.487500 0.0
2.700000 1.487500 0.0
2.742857 1.487500 0.0
2.785714 1.487500 0.0
2.828571 1.487500 0.0
2.871429 1.487500 0.0
2.914286 1.487500 0.0
2.957143 1.487500 0.0
3.000000 1.487500 0.0
1.500000 1.531250 0.0
1.542857 1.531250 0.0
1.585714 1.531250 0.0
1.628571 1.531250 0.0
1.671429 1.531250 0.0
1.714286 1.531250 0.0
1.757143 1.531250 0.0
1.800000 1.531250 0.0
1.842857 1.531250 0.0
1.885714 1.531250 0.0
1.928571 1.531250 0.0
1.971429 1.531250 0.0
2.014286 1.531250 0.0
2.057143 1.531250 0.0
2.100000 1.531250 0.0
2.142857 1.531250 0.0
2.185714 1.531250 0.0
2.228571 1.531250 0.0
2.271429 1.531250 0.0
2.314286 1.531250 0.0
2.357143 1.531250 0.0
2.400000 1.531250 0.0
2.442857 1.531250 0.0
2.485714 1.531250 0.0
2.528571 1.531250 0.0
2.571429 1.531250 0.0
2.614286 1.531250 0.0
2.657143 1.531250 0.0
2.700000 1.531250 0.0
2.742857 1.531250 0.0
2.785714 1.531250 0.0
2.828571 1.531250 0.0
2.871429 1.531250 0.0
2.914286 1.531250 0.0
2.957143 1.531250 0.0
3.000000 1.531250 0.0
1.500000 1.575000 0.0
1.542857 1.575000 0.0
1.585714 1.575000 0.0
1.628571 1.575000 0.0
1.671429 1.575000 0.0
1.714286 1.575000 0.0
1.757143 1.575000 0.0
1.800000 1.575000 0.0
1.842857 1.575000 0.0
1.885714 1.575000 0.0
1.928571 1.575000 0.0
1.971429 1.575000 0.0
2.014286 1.575000 0.0
2.057143 1.575000 0.0
2.100000 1.575000 0.0
2.142857 1.575000 0.0
2.185714 1.575000 0.0
2.228571 1.575000 0.0
2.271429 1.575000 0.0
2.314286 1.575000 0.0
2.357143 1.575000 0.0
2.400000 1.575000 0.0
2.442857 1.575000 0.0
2.485714 1.575000 0.0
2.528571 1.575000 0.0
2.571429 1.575000 0.0
2.614286 1.575000 0.0
2.657143 1.575000 0.0
2.700000 1.575000 0.0
2.742857 1.575000 0.0
2.785714 1.575000 0.0
2.828571 1.575000 0.0
2.871429 1.575000 0.0
2.914286 1.575000 0.0
2.957143 1.575000 0.0
3.000000 1.575000 0.0
1.500000 1.618750 0.0
1.542857 1.618750 0.0
1.585714 1.618750 0.0
1.628571 1.618750 0.0
1.671429 1.618750 0.0
1.714286 1.618750 0.0
1.757143 1.618750 0.0
1.800000 1.618750 0.0
1.842857 1.618750 0.0
1.885714 1.618750 0.0
1.928571 1.618750 0.0
1.971429 1.618750 0.0
2.014286 1.618750 0.0
2.057143 1.618750 0.0
2.100000 1.618750 0.0
2.142857 1.618750 0.0
2.185714 1.618750 0.0
2.228571 1.618750 0.0
2.271429 1.618750 0.0
2.314286 1.618750 0.0
2.357143 1.618750 0.0
2.400000 1.618750 0.0
2.442857 1.618750 0.0
2.485714 1.618750 0.0
2.528571 1.618750 0.0
2.571429 1.618750 0.0
2.614286 1.618750 0.0
2.657143 1.618750 0.0
2.700000 1.618750 0.0
2.742857 1.618750 0.0
2.785714 1.618750 0.0
2.828571 1.618750 0.0
2.871429 1.618750 0.0
2.914286 1.618750 0.0
2.957143 1.618750 0.0
3.000000 1.618750 0.0
1.500000 1.662500 0.0
1.542857 1.662500 0.0
1.585714 1.662500 0.0
1.628571 1.662500 0.0
1.671429 1.662500 0.0
1.714286 1.662500 0.0
1.757143 1.662500 0.0
1.800000 1.662500 0.0
1.842857 1.662500 0.0
1.885714 1.662500 0.0
1.928571 1.662500 0.0
1.971429 1.662500 0.0
2.014286 1.662500 0.0
2.057143 1.662500 0.0
2.100000 1.662500 0.0
2.142857 1.662500 0.0
2.185714 1.662500 0.0
2.228571 1.662500 0.0
2.271429 1.662500 0.0
2.314286 1.662500 0.0
2.357143 1.662500 0.0
2.400000 1.662500 0.0
2.442857 1.662500 0.0
2.485714 1.662500 0.0
2.528571 1.662500 0.0
2.571429 1.662500 0.0
2.614286 1.662500 0.0
2.657143 1.662500 0.0
2.700000 1.662500 0.0
2.742857 1.662500 0.0
2.785714 1.662500 0.0
2.828571 1.662500 0.0
2.871429 1.662500 0.0
2.914286 1.662500 0.0
2.957143 1.662500 0.0
3.000000 1.662500 0.0
1.500000 1.706250 0.0
1.542857 1.706250 0.0
1.585714 1.706250 0.0
1.628571 1.706250 0.0
1.671429 1.706250 0.0
1.714286 1.706250 0.0
1.757143 1.706250 0.0
1.800000 1.706250 0.0
1.842857 1.706250 0.0
1.885714 1.706250 0.0
1.928571 1.706250 0.0
1.971429 1.706250 0.0
2.014286 1.706250 0.0
2.057143 1.706250 0.0
2.100000 1.706250 0.0
2.142857 1.706250 0.0
2.185714 1.706250 0.0
2.228571 1.706250 0.0
2.271429 1.706250 0.0
2.314286 1.706250 0.0
2.357143 1.706250 0.0
2.400000 1.706250 0.0
2.442857 1.706250 0.0
2.485714 1.706250 0.0
2.528571 1.706250 0.0
2.571429 1.706250 0.0
2.614286 1.706250 0.0
2.657143 1.706250 0.0
2.700000 1.706250 0.0
2.742857 1.706250 0.0
2.785714 1.706250 0.0
2.828571 1.706250 0.0
2.871429 1.706250 0.0
2.914286 1.706250 0.0
2.957143 1.706250 0.0
3.000000 1.706250 0.0
1.500000 1.750000 0.0
1.542857 1.750000 0.0
1.585714 1.750000 0.0
1.628571 1.750000 0.0
1.671429 1.750000 0.0
1.714286 1.750000 0.0
1.757143 1.750000 0.0
1.800000 1.750000 0.0
1.842857 1.750000 0.0
1.885714 1.750000 0.0
1.928571 1.750000 0.0
1.971429 1.750000 0.0
2.014286 1.750000 0.0
2.057143 1.750000 0.0
2.100000 1.750000 0.0
2.142857 1.750000 0.0
2.185714 1.750000 0.0
2.228571 1.750000 0.0
2.271429 1.750000 0.0
2.314286 1.750000 0.0
2.357143 1.750000 0.0
2.400000 1.750000 0.0
2.442857 1.750000 0.0
2.485714 1.750000 0.0
2.528571 1.750000 0.0
2.571429 1.750000 0.0
2.614286 1.750000 0.0
2.657143 1.750000 0.0
2.700000 1.750000 0.0
2.742857 1.750000 0.0
2.785714 1.750000 0.0
2.828571 1.750000 0.0
2.871429 1.750000 0.0
2.914286 1.750000 0.0
2.957143 1.750000 0.0
3.000000 1.750000 0.0
</DataArray></Points>
<PointData>
<DataArray NumberOfComponents="1" format="ascii" type ="Float32" Name="phi">
0.135919
0.137574
0.142555
0.150273
0.160138
0.172359
0.187242
0.204536
0.223739
0.244698
0.267414
0.291931
0.318249
0.346063
0.374970
0.404880
0.435898
0.467963
0.500784
0.534161
0.568098
0.602757
0.638208
0.674221
0.710562
0.747177
0.784116
0.821512
0.859387
0.897554
0.935863
0.974288
1.012900
1.051843
1.091099
1.106388
0.092205
0.094001
0.099343
0.107513
0.117926
0.130982
0.146916
0.165207
0.185373
0.207402
0.231370
0.257191
0.284707
0.313711
0.343831
0.374809
0.406663
0.439549
0.473384
0.507853
0.542786
0.578202
0.614251
0.650972
0.688135
0.725541
0.763149
0.801013
0.839281
0.877965
0.916877
0.955888
0.994984
1.034259
1.073819
1.093677
0.048492
0.050451
0.056189
0.064838
0.075886
0.089968
0.107067
0.126384
0.147603
0.170868
0.196295
0.223591
0.252322
0.282382
0.313648
0.345837
0.378765
0.412507
0.447200
0.482679
0.518644
0.554979
0.591714
0.628987
0.666799
0.704936
0.743249
0.781711
0.820396
0.859451
0.898856
0.938429
0.978073
1.017789
1.057664
1.077656
0.005085
0.007221
0.013480
0.022814
0.034381
0.049371
0.067741
0.088123
0.110548
0.135361
0.162410
0.191156
0.221172
0.252311
0.284638
0.318026
0.352181
0.386986
0.422542
0.458874
0.495763
0.533001
0.570526
0.608384
0.646699
0.685435
0.724407
0.763512
0.802739
0.842180
0.881953
0.921999
0.962167
1.002397
1.042701
1.062876
-0.038301
-0.035903
-0.029006
-0.018911
-0.006606
0.009759
0.029325
0.050461
0.074455
0.101198
0.129865
0.159927
0.191240
0.223644
0.257137
0.291694
0.327052
0.362990
0.399491
0.436613
0.474281
0.512316
0.550611
0.589139
0.627966
0.667182
0.706720
0.746437
0.786268
0.826214
0.866365
0.906782
0.947390
0.988101
1.028884
1.049292
-0.081942
-0.079193
-0.071639
-0.060826
-0.047080
-0.028998
-0.008184
0.014257
0.040053
0.068600
0.098673
0.130048
0.162733
0.196568
0.231391
0.267134
0.303602
0.340581
0.378006
0.415906
0.454269
0.492998
0.532003
0.571227
0.610661
0.650365
0.690381
0.730634
0.771038
0.811552
0.852183
0.892983
0.933957
0.975063
1.016266
1.036887
-0.125517
-0.122405
-0.114139
-0.102348
-0.086841
-0.067285
-0.044943
-0.020254
0.007652
0.037632
0.068847
0.101809
0.136102
0.171426
0.207551
0.244401
0.281869
0.319790
0.358081
0.396741
0.435779
0.475159
0.514826
0.554729
0.594826
0.635110
0.675619
0.716352
0.757256
0.798283
0.839408
0.880632
0.921962
0.963401
1.004939
1.025728
-0.169022
-0.165528
-0.156414
-0.143281
-0.125929
-0.104642
-0.080327
-0.053115
-0.023072
0.008379
0.041092
0.075784
0.111678
0.148356
0.185643
0.223483
0.261846
0.300634
0.339759
0.379200
0.418954
0.459002
0.499318
0.539871
0.580611
0.621502
0.662542
0.703736
0.745074
0.786523
0.828054
0.869655
0.911322
0.953062
0.994878
1.015803
-0.212452
-0.208524
-0.198326
-0.183468
-0.164007
-0.140528
-0.113713
-0.083974
-0.052141
-0.018852
0.015970
0.052261
0.089467
0.127288
0.165632
0.204424
0.243659
0.283294
0.323257
0.363513
0.404037
0.444790
0.485751
0.526903
0.568205
0.609620
0.651131
0.692740
0.734450
0.776244
0.818100
0.860006
0.901959
0.943961
0.986017
1.007058
-0.255789
-0.251308
-0.239637
-0.222571
-0.200521
-0.174322
-0.144799
-0.112747
-0.078915
-0.043469
-0.006462
0.031218
0.069359
0.108257
0.147644
0.187451
0.227650
0.268190
0.309006
0.350056
0.391298
0.432691
0.474217
0.515866
0.557614
0.599439
0.641326
0.683275
0.725290
0.767365
0.809487
0.851644
0.893835
0.936059
0.978321
0.999461
-0.298978
-0.293709
-0.279952
-0.259996
-0.234751
-0.205404
-0.173005
-0.138390
-0.102098
-0.064454
-0.025704
0.012763
0.051560
0.091714
0.132287
0.173188
0.214360
0.255745
0.297296
0.338982
0.380774
0.422650
0.464603
0.506630
0.548721
0.590862
0.633044
0.675265
0.717528
0.759833
0.802172
0.844536
0.886923
0.929334
0.971769
0.992993
-0.341867
-0.335372
-0.318566
-0.294796
-0.265682
-0.232789
-0.197293
-0.160021
-0.121530
-0.082247
-0.042492
-0.002994
0.037212
0.078663
0.120294
0.162067
0.203950
0.245921
0.287970
0.330088
0.372262
0.414485
0.456752
0.499066
0.541420
0.583806
0.626219
0.668657
0.711122
0.753614
0.796130
0.838663
0.881211
0.923775
0.966355
0.987649
-0.383988
-0.375480
-0.354149
-0.325491
-0.292003
-0.255530
-0.217248
-0.177902
-0.137934
-0.097563
-0.056919
-0.015485
0.026878
0.069263
0.111455
0.153702
0.195993
0.238327
0.280704
0.323119
0.365569
0.408047
0.450553
0.493086
0.535646
0.578225
0.620821
0.663432
0.706058
0.748702
0.791360
0.834029
0.876707
0.919395
0.962092
0.983443
-0.423901
-0.412155
-0.384456
-0.350222
-0.312519
-0.273021
-0.232569
-0.191570
-0.150202
-0.108535
-0.066615
-0.023663
0.019728
0.062426
0.104937
0.147491
0.190071
0.232675
0.275303
0.317953
0.360620
0.403302
0.445997
0.488706
0.531428
0.574160
0.616899
0.659646
0.702400
0.745162
0.787932
0.830706
0.873486
0.916269
0.959038
0.980415
-0.457178
-0.440779
-0.405102
-0.365423
-0.324215
-0.282389
-0.240265
-0.197943
-0.155460
-0.112839
-0.070105
-0.027142
0.015629
0.058213
0.100981
0.143755
0.186538
0.229329
0.272127
0.314932
0.357741
0.400554
0.443371
0.486192
0.529016
0.571843
0.614672
0.657502
0.700335
0.743169
0.786006
0.828844
0.871683
0.914513
0.956436
0.976949
-0.459787
-0.443024
-0.406642
-0.366302
-0.324453
-0.282075
-0.239521
-0.196886
-0.154206
-0.111497
-0.068741
-0.026589
0.015007
0.057274
0.100112
0.142940
0.185772
0.228608
0.271446
0.314286
0.357127
0.399970
0.442815
0.485661
0.528507
0.571354
0.614202
0.657051
0.699901
0.742752
0.785603
0.828454
0.871304
0.913158
0.947012
0.960436
-0.429557
-0.417203
-0.388400
-0.353269
-0.314724
-0.274412
-0.233151
-0.191331
-0.149190
-0.106869
-0.064406
-0.022552
0.018461
0.060177
0.102759
0.145367
0.188012
0.230690
0.273392
0.316112
0.358849
0.401600
0.444363
0.487135
0.529914
0.572699
0.615492
0.658291
0.701095
0.743902
0.786713
0.829537
0.871146
0.904241
0.920827
0.924508
-0.390287
-0.381308
-0.359175
-0.330037
-0.296232
-0.259468
-0.220818
-0.180927
-0.140226
-0.099005
-0.057427
-0.015337
0.026324
0.067724
0.109701
0.151780
0.193958
0.236218
0.278543
0.320927
0.363368
0.405857
0.448385
0.490940
0.533520
0.576124
0.618757
0.661415
0.704089
0.746776
0.789510
0.830607
0.862335
0.877581
0.880888
0.880966
-0.348492
-0.341584
-0.323993
-0.299697
-0.270291
-0.237245
-0.201711
-0.164429
-0.125857
-0.086332
-0.046138
-0.004593
0.037281
0.078500
0.119876
0.161381
0.203018
0.244770
0.286620
0.328565
0.370604
0.412726
0.454910
0.497143
0.539422
0.581751
0.624133
0.666564
0.709023
0.751578
0.791760
0.821323
0.834583
0.837185
0.837223
0.837216
-0.305787
-0.300200
-0.285715
-0.265173
-0.239581
-0.209966
-0.177384
-0.142686
-0.106381
-0.068753
-0.029669
0.010473
0.050820
0.091319
0.132070
0.173011
0.214123
0.255384
0.296773
0.338282
0.379913
0.421649
0.463466
0.505352
0.547304
0.589329
0.631425
0.673589
0.715906
0.754623
0.781096
0.791770
0.793484
0.793489
0.793474
0.793467
-0.262681
-0.258005
-0.245693
-0.227976
-0.205586
-0.179124
-0.149339
-0.117068
-0.082988
-0.047428
-0.009605
0.029167
0.067722
0.106970
0.146706
0.186820
0.227246
0.267911
0.308762
0.349780
0.390956
0.432270
0.473691
0.515205
0.556808
0.598509
0.640300
0.682026
0.718468
0.741137
0.748980
0.749774
0.749759
0.749740
0.749724
0.760654
</DataArray>
<DataArray NumberOfComponents="1" format="ascii" type ="Float32" Name="u">
0.000046
-0.000999
-0.002064
-0.003101
-0.003955
-0.004607
-0.005082
-0.005368
-0.005499
-0.005512
-0.005439
-0.005304
-0.005127
-0.004921
-0.004699
-0.004471
-0.004244
-0.004024
-0.003815
-0.003619
-0.003438
-0.003272
-0.003121
-0.002985
-0.002864
-0.002756
-0.002661
-0.002579
-0.002508
-0.002448
-0.002398
-0.002359
-0.002329
-0.002308
-0.002296
-0.002296
0.000056
-0.001118
-0.002397
-0.003746
-0.004723
-0.005438
-0.005979
-0.006240
-0.006288
-0.006204
-0.006036
-0.005813
-0.005553
-0.005272
-0.004982
-0.004695
-0.004416
-0.004152
-0.003906
-0.003679
-0.003472
-0.003285
-0.003118
-0.002968
-0.002836
-0.002719
-0.002617
-0.002529
-0.002454
-0.002391
-0.002340
-0.002300
-0.002271
-0.002253
-0.002247
-0.002247
0.000042
-0.001143
-0.002593
-0.004404
-0.005319
-0.006140
-0.006948
-0.007227
-0.007165
-0.006959
-0.006678
-0.006350
-0.005994
-0.005626
-0.005260
-0.004906
-0.004571
-0.004261
-0.003976
-0.003718
-0.003486
-0.003280
-0.003096
-0.002934
-0.002791
-0.002667
-0.002559
-0.002467
-0.002388
-0.002323
-0.002269
-0.002228
-0.002198
-0.002180
-0.002171
-0.002171
-0.000019
-0.001024
-0.002289
-0.003978
-0.004875
-0.006126
-0.007704
-0.008158
-0.008031
-0.007727
-0.007340
-0.006902
-0.006439
-0.005973
-0.005522
-0.005095
-0.004701
-0.004342
-0.004019
-0.003731
-0.003475
-0.003250
-0.003052
-0.002879
-0.002729
-0.002598
-0.002486
-0.002390
-0.002308
-0.002241
-0.002187
-0.002144
-0.002114
-0.002094
-0.002083
-0.002083
-0.000077
-0.000729
-0.001324
-0.001843
-0.003114
-0.004872
-0.007070
-0.008422
-0.008613
-0.008407
-0.007987
-0.007451
-0.006873
-0.006300
-0.005754
-0.005250
-0.004794
-0.004386
-0.004027
-0.003710
-0.003434
-0.003193
-0.002984
-0.002802
-0.002646
-0.002511
-0.002395
-0.002297
-0.002215
-0.002147
-0.002092
-0.002049
-0.002017
-0.001996
-0.001985
-0.001985
-0.000074
-0.000388
-0.000482
-0.000307
-0.001431
-0.002780
-0.004361
-0.006880
-0.008423
-0.008790
-0.008538
-0.007967
-0.007280
-0.006589
-0.005941
-0.005355
-0.004837
-0.004384
-0.003991
-0.003651
-0.003357
-0.003105
-0.002887
-0.002701
-0.002540
-0.002404
-0.002287
-0.002189
-0.002106
-0.002039
-0.001984
-0.001941
-0.001910
-0.001889
-0.001877
-0.001877
-0.000047
-0.000182
-0.000191
-0.000118
-0.000563
-0.001077
-0.001638
-0.003649
-0.006617
-0.008444
-0.008811
-0.008391
-0.007635
-0.006819
-0.006060
-0.005392
-0.004816
-0.004323
-0.003903
-0.003545
-0.003240
-0.002981
-0.002760
-0.002572
-0.002412
-0.002276
-0.002161
-0.002064
-0.001983
-0.001917
-0.001864
-0.001822
-0.001792
-0.001771
-0.001760
-0.001760
-0.000028
-0.000085
-0.000078
-0.000026
-0.000125
-0.000245
-0.000343
-0.001074
-0.003435
-0.006571
-0.008490
-0.008599
-0.007882
-0.006952
-0.006083
-0.005339
-0.004714
-0.004192
-0.003754
-0.003388
-0.003079
-0.002819
-0.002600
-0.002415
-0.002259
-0.002127
-0.002016
-0.001923
-0.001845
-0.001782
-0.001731
-0.001692
-0.001663
-0.001643
-0.001632
-0.001632
-0.000017
-0.000037
-0.000024
0.000023
0.000042
0.000073
0.000131
-0.000105
-0.001076
-0.003578
-0.007013
-0.008270
-0.007864
-0.006908
-0.005967
-0.005171
-0.004517
-0.003980
-0.003538
-0.003173
-0.002870
-0.002617
-0.002406
-0.002229
-0.002081
-0.001956
-0.001852
-0.001765
-0.001693
-0.001634
-0.001587
-0.001550
-0.001523
-0.001505
-0.001495
-0.001495
-0.000009
-0.000014
-0.000000
0.000036
0.000079
0.000139
0.000214
0.000153
-0.000285
-0.001512
-0.004400
-0.007209
-0.007343
-0.006571
-0.005665
-0.004866
-0.004209
-0.003679
-0.003248
-0.002898
-0.002611
-0.002374
-0.002178
-0.002015
-0.001879
-0.001765
-0.001670
-0.001592
-0.001527
-0.001474
-0.001432
-0.001399
-0.001375
-0.001359
-0.001350
-0.001350
-0.000005
-0.000005
0.000004
0.000029
0.000064
0.000111
0.000162
0.000143
-0.000075
-0.000719
-0.002139
-0.005521
-0.006255
-0.005906
-0.005156
-0.004407
-0.003781
-0.003280
-0.002881
-0.002561
-0.002302
-0.002090
-0.001916
-0.001772
-0.001653
-0.001554
-0.001472
-0.001405
-0.001349
-0.001303
-0.001267
-0.001239
-0.001218
-0.001204
-0.001196
-0.001196
-0.000001
-0.000005
-0.000003
0.000009
0.000028
0.000056
0.000085
0.000083
-0.000006
-0.000288
-0.000998
-0.003303
-0.004903
-0.005048
-0.004464
-0.003790
-0.003225
-0.002782
-0.002436
-0.002163
-0.001944
-0.001767
-0.001622
-0.001504
-0.001406
-0.001326
-0.001259
-0.001204
-0.001159
-0.001123
-0.001093
-0.001071
-0.001054
-0.001042
-0.001036
-0.001036
0.000001
-0.000009
-0.000016
-0.000018
-0.000015
-0.000006
0.000008
0.000022
0.000032
0.000013
-0.000161
-0.001016
-0.003767
-0.004075
-0.003570
-0.002997
-0.002536
-0.002185
-0.001917
-0.001707
-0.001542
-0.001409
-0.001301
-0.001213
-0.001142
-0.001083
-0.001034
-0.000994
-0.000961
-0.000934
-0.000913
-0.000896
-0.000884
-0.000875
-0.000870
-0.000870
0.000003
-0.000016
-0.000034
-0.000049
-0.000063
-0.000074
-0.000082
-0.000078
-0.000042
0.000070
0.000275
0.000245
-0.002657
-0.002758
-0.002372
-0.002001
-0.001713
-0.001497
-0.001332
-0.001204
-0.001103
-0.001022
-0.000958
-0.000905
-0.000863
-0.000828
-0.000799
-0.000776
-0.000756
-0.000740
-0.000728
-0.000717
-0.000709
-0.000704
-0.000700
-0.000700
0.000004
-0.000024
-0.000053
-0.000081
-0.000112
-0.000147
-0.000188
-0.000236
-0.000279
-0.000288
-0.000201
-0.000047
-0.001078
-0.000958
-0.000873
-0.000827
-0.000782
-0.000738
-0.000699
-0.000666
-0.000639
-0.000617
-0.000599
-0.000586
-0.000575
-0.000566
-0.000558
-0.000552
-0.000547
-0.000543
-0.000539
-0.000536
-0.000533
-0.000530
-0.000528
-0.000528
0.000005
-0.000032
-0.000070
-0.000110
-0.000155
-0.000211
-0.000286
-0.000394
-0.000556
-0.000792
-0.001067
-0.001051
0.000799
0.001013
0.000715
0.000406
0.000191
0.000050
-0.000044
-0.000112
-0.000163
-0.000203
-0.000235
-0.000261
-0.000283
-0.000301
-0.000316
-0.000328
-0.000337
-0.000345
-0.000350
-0.000354
-0.000355
-0.000355
-0.000355
-0.000355
0.000005
-0.000039
-0.000084
-0.000132
-0.000186
-0.000253
-0.000342
-0.000473
-0.000673
-0.000969
-0.001292
-0.001112
0.002372
0.002603
0.002071
0.001524
0.001109
0.000812
0.000596