<VTKFile type="StructuredGrid" version="0.1" byte_order="LittleEndian">
<StructuredGrid WholeExtent="1 71 1 81 0 0">
<Piece Extent="36 71 41 61 0 0">
<PointData></PointData>
<CellData></CellData>
<Points>
<DataArray NumberOfComponents="3" format="ascii" type ="Float32" Name="mesh">
1.500000 1.750000 0.0
1.542857 1.750000 0.0
1.585714 1.750000 0.0
1.628571 1.750000 0.0
1.671429 1.750000 0.0
1.714286 1.750000 0.0
1.757143 1.750000 0.0
1.800000 1.750000 0.0
1.842857 1.750000 0.0
1.885714 1.750000 0.0
1.928571 1.750000 0.0
1.971429 1.750000 0.0
2.014286 1.750000 0.0
2.057143 1.750000 0.0
2.100000 1.750000 0.0
2.142857 1.750000 0.0
2.185714 1.750000 0.0
2.228571 1.750000 0.0
2.271429 1.750000 0.0
2.314286 1.750000 0.0
2.357143 1.750000 0.0
2.400000 1.750000 0.0
2.442857 1.750000 0.0
2.485714 1.750000 0.0
2.528571 1.750000 0.0
2.571429 1.750000 0.0
2.614286 1.750000 0.0
2.657143 1.750000 0.0
2.700000 1.750000 0.0
2.742857 1.750000 0.0
2.785714 1.750000 0.0
2.828571 1.750000 0.0
2.871429 1.750000 0.0
2.914286 1.750000 0.0
2.957143 1.750000 0.0
3.000000 1.750000 0.0
1.500000 1.793750 0.0
1.542857 1.793750 0.0
1.585714 1.793750 0.0
1.628571 1.793750 0.0
1.671429 1.793750 0.0
1.714286 1.793750 0.0
1.757143 1.793750 0.0
1.800000 1.793750 0.0
1.842857 1.793750 0.0
1.885714 1.793750 0.0
1.928571 1.793750 0.0
1.971429 1.793750 0.0
2.014286 1.793750 0.0
2.057143 1.793750 0.0
2.100000 1.793750 0.0
2.142857 1.793750 0.0
2.185714 1.793750 0.0
2.228571 1.793750 0.0
2.271429 1.793750 0.0
2.314286 1.793750 0.0
2.357143 1.793750 0.0
2.400000 1.793750 0.0
2.442857 1.793750 0.0
2.485714 1.793750 0.0
2.528571 1.793750 0.0
2.571429 1.793750 0.0
2.614286 1.793750 0.0
2.657143 1.793750 0.0
2.700000 1.793750 0.0
2.742857 1.793750 0.0
2.785714 1.793750 0.0
2.828571 1.793750 0.0
2.871429 1.793750 0.0
2.914286 1.793750 0.0
2.957143 1.793750 0.0
3.000000 1.793750 0.0
1.500000 1.837500 0.0
1.542857 1.837500 0.0
1.585714 1.837500 0.0
1.628571 1.837500 0.0
1.671429 1.837500 0.0
1.714286 1.837500 0.0
1.757143 1.837500 0.0
1.800000 1.837500 0.0
1.842857 1.837500 0.0
1.885714 1.837500 0.0
1.928571 1.837500 0.0
1.971429 1.837500 0.0
2.014286 1.837500 0.0
2.057143 1.837500 0.0
2.100000 1.837500 0.0
2.142857 1.837500 0.0
2.185714 1.837500 0.0
2.228571 1.837500 0.0
2.271429 1.837500 0.0
2.314286 1.837500 0.0
2.357143 1.837500 0.0
2.400000 1.837500 0.0
2.442857 1.837500 0.0
2.485714 1.837500 0.0
2.528571 1.837500 0.0
2.571429 1.837500 0.0
2.614286 1.837500 0.0
2.657143 1.837500 0.0
2.700000 1.837500 0.0
2.742857 1.837500 0.0
2.785714 1.837500 0.0
2.828571 1.837500 0.0
2.871429 1.837500 0.0
2.914286 1.837500 0.0
2.957143 1.837500 0.0
3.000000 1.837500 0.0
1.500000 1.881250 0.0
1.542857 1.881250 0.0
1.585714 1.881250 0.0
1.628571 1.881250 0.0
1.671429 1.881250 0.0
1.714286 1.881250 0.0
1.757143 1.881250 0.0
1.800000 1.881250 0.0
1.842857 1.881250 0.0
1.885714 1.881250 0.0
1.928571 1.881250 0.0
1.971429 1.881250 0.0
2.014286 1.881250 0.0
2.057143 1.881250 0.0
2.100000 1.881250 0.0
2.142857 1.881250 0.0
2.185714 1.881250 0.0
2.228571 1.881250 0.0
2.271429 1.881250 0.0
2.314286 1.881250 0.0
2.357143 1.881250 0.0
2.400000 1.881250 0.0
2.442857 1.881250 0.0
2.485714 1.881250 0.0
2.528571 1.881250 0.0
2.571429 1.881250 0.0
2.614286 1.881250 0.0
2.657143 1.881250 0.0
2.700000 1.881250 0.0
2.742857 1.881250 0.0
2.785714 1.881250 0.0
2.828571 1.881250 0.0
2.871429 1.881250 0.0
2.914286 1.881250 0.0
2.957143 1.881250 0.0
3.000000 1.881250 0.0
1.500000 1.925000 0.0
1.542857 1.925000 0.0
1.585714 1.925000 0.0
1.628571 1.925000 0.0
1.671429 1.925000 0.0
1.714286 1.925000 0.0
1.757143 1.925000 0.0
1.800000 1.925000 0.0
1.842857 1.925000 0.0
1.885714 1.925000 0.0
1.928571 1.925000 0.0
1.971429 1.925000 0.0
2.014286 1.925000 0.0
2.057143 1.925000 0.0
2.100000 1.925000 0.0
2.142857 1.925000 0.0
2.185714 1.925000 0.0
2.228571 1.925000 0.0
2.271429 1.925000 0.0
2.314286 1.925000 0.0
2.357143 1.925000 0.0
2.400000 1.925000 0.0
2.442857 1.925000 0.0
2.485714 1.925000 0.0
2.528571 1.925000 0.0
2.571429 1.925000 0.0
2.614286 1.925000 0.0
2.657143 1.925000 0.0
2.700000 1.925000 0.0
2.742857 1.925000 0.0
2.785714 1.925000 0.0
2.828571 1.925000 0.0
2.871429 1.925000 0.0
2.914286 1.925000 0.0
2.957143 1.925000 0.0
3.000000 1.925000 0.0
1.500000 1.968750 0.0
1.542857 1.968750 0.0
1.585714 1.968750 0.0
1.628571 1.968750 0.0
1.671429 1.968750 0.0
1.714286 1.968750 0.0
1.757143 1.968750 0.0
1.800000 1.968750 0.0
1.842857 1.968750 0.0
1.885714 1.968750 0.0
1.928571 1.968750 0.0
1.971429 1.968750 0.0
2.014286 1.968750 0.0
2.057143 1.968750 0.0
2.100000 1.968750 0.0
2.142857 1.968750 0.0
2.185714 1.968750 0.0
2.228571 1.968750 0.0
2.271429 1.968750 0.0
2.314286 1.968750 0.0
2.357143 1.968750 0.0
2.400000 1.968750 0.0
2.442857 1.968750 0.0
2.485714 1.968750 0.0
2.528571 1.968750 0.0
2.571429 1.968750 0.0
2.614286 1.968750 0.0
2.657143 1.968750 0.0
2.700000 1.968750 0.0
2.742857 1.968750 0.0
2.785714 1.968750 0.0
2.828571 1.968750 0.0
2.871429 1.968750 0.0
2.914286 1.968750 0.0
2.957143 1.968750 0.0
3.000000 1.968750 0.0
1.500000 2.012500 0.0
1.542857 2.012500 0.0
1.585714 2.012500 0.0
1.628571 2.012500 0.0
1.671429 2.012500 0.0
1.714286 2.012500 0.0
1.757143 2.012500 0.0
1.800000 2.012500 0.0
1.842857 2.012500 0.0
1.885714 2.012500 0.0
1.928571 2.012500 0.0
1.971429 2.012500 0.0
2.014286 2.012500 0.0
2.057143 2.012500 0.0
2.100000 2.012500 0.0
2.142857 2.012500 0.0
2.185714 2.012500 0.0
2.228571 2.012500 0.0
2.271429 2.012500 0.0
2.314286 2.012500 0.0
2.357143 2.012500 0.0
2.400000 2.012500 0.0
2.442857 2.012500 0.0
2.485714 2.012500 0.0
2.528571 2.012500 0.0
2.571429 2.012500 0.0
2.614286 2.012500 0.0
2.657143 2.012500 0.0
2.700000 2.012500 0.0
2.742857 2.012500 0.0
2.785714 2.012500 0.0
2.828571 2.012500 0.0
2.871429 2.012500 0.0
2.914286 2.012500 0.0
2.957143 2.012500 0.0
3.000000 2.012500 0.0
1.500000 2.056250 0.0
1.542857 2.056250 0.0
1.585714 2.056250 0.0
1.628571 2.056250 0.0
1.671429 2.056250 0.0
1.714286 2.056250 0.0
1.757143 2.056250 0.0
1.800000 2.056250 0.0
1.842857 2.056250 0.0
1.885714 2.056250 0.0
1.928571 2.056250 0.0
1.971429 2.056250 0.0
2.014286 2.056250 0.0
2.057143 2.056250 0.0
2.100000 2.056250 0.0
2.142857 2.056250 0.0
2.185714 2.056250 0.0
2.228571 2.056250 0.0
2.271429 2.056250 0.0
2.314286 2.056250 0.0
2.357143 2.056250 0.0
2.400000 2.056250 0.0
2.442857 2.056250 0.0
2.485714 2.056250 0.0
2.528571 2.056250 0.0
2.571429 2.056250 0.0
2.614286 2.056250 0.0
2.657143 2.056250 0.0
2.700000 2.056250 0.0
2.742857 2.056250 0.0
2.785714 2.056250 0.0
2.828571 2.056250 0.0
2.871429 2.056250 0.0
2.914286 2.056250 0.0
2.957143 2.056250 0.0
3.000000 2.056250 0.0
1.500000 2.100000 0.0
1.542857 2.100000 0.0
1.585714 2.100000 0.0
1.628571 2.100000 0.0
1.671429 2.100000 0.0
1.714286 2.100000 0.0
1.757143 2.100000 0.0
1.800000 2.100000 0.0
1.842857 2.100000 0.0
1.885714 2.100000 0.0
1.928571 2.100000 0.0
1.971429 2.100000 0.0
2.014286 2.100000 0.0
2.057143 2.100000 0.0
2.100000 2.100000 0.0
2.142857 2.100000 0.0
2.185714 2.100000 0.0
2.228571 2.100000 0.0
2.271429 2.100000 0.0
2.314286 2.100000 0.0
2.357143 2.100000 0.0
2.400000 2.100000 0.0
2.442857 2.100000 0.0
2.485714 2.100000 0.0
2.528571 2.100000 0.0
2.571429 2.100000 0.0
2.614286 2.100000 0.0
2.657143 2.100000 0.0
2.700000 2.100000 0.0
2.742857 2.100000 0.0
2.785714 2.100000 0.0
2.828571 2.100000 0.0
2.871429 2.100000 0.0
2.914286 2.100000 0.0
2.957143 2.100000 0.0
3.000000 2.100000 0.0
1.500000 2.143750 0.0
1.542857 2.143750 0.0
1.585714 2.143750 0.0
1.628571 2.143750 0.0
1.671429 2.143750 0.0
1.714286 2.143750 0.0
1.757143 2.143750 0.0
1.800000 2.143750 0.0
1.842857 2.143750 0.0
1.885714 2.143750 0.0
1.928571 2.143750 0.0
1.971429 2.143750 0.0
2.014286 2.143750 0.0
2.057143 2.143750 0.0
2.100000 2.143750 0.0
2.142857 2.143750 0.0
2.185714 2.143750 0.0
2.228571 2.143750 0.0
2.271429 2.143750 0.0
2.314286 2.143750 0.0
2.357143 2.143750 0.0
2.400000 2.143750 0.0
2.442857 2.143750 0.0
2.485714 2.143750 0.0
2.528571 2.143750 0.0
2.571429 2.143750 0.0
2.614286 2.143750 0.0
2.657143 2.143750 0.0
2.700000 2.143750 0.0
2.742857 2.143750 0.0
2.785714 2.143750 0.0
2.828571 2.143750 0.0
2.871429 2.143750 0.0
2.914286 2.143750 0.0
2.957143 2.143750 0.0
3.000000 2.143750 0.0
1.500000 2.187500 0.0
1.542857 2.187500 0.0
1.585714 2.187500 0.0
1.628571 2.187500 0.0
1.671429 2.187500 0.0
1.714286 2.187500 0.0
1.757143 2.187500 0.0
1.800000 2.187500 0.0
1.842857 2.187500 0.0
1.885714 2.187500 0.0
1.928571 2.187500 0.0
1.971429 2.187500 0.0
2.014286 2.187500 0.0
2.057143 2.187500 0.0
2.100000 2.187500 0.0
2.142857 2.187500 0.0
2.185714 2.187500 0.0
2.228571 2.187500 0.0
2.271429 2.187500 0.0
2.314286 2.187500 0.0
2.357143 2.187500 0.0
2.400000 2.187500 0.0
2.442857 2.187500 0.0
2.485714 2.187500 0.0
2.528571 2.187500 0.0
2.571429 2.187500 0.0
2.614286 2.187500 0.0
2.657143 2.187500 0.0
2.700000 2.187500 0.0
2.742857 2.187500 0.0
2.785714 2.187500 0.0
2.828571 2.187500 0.0
2.871429 2.187500 0.0
2.914286 2.187500 0.0
2.957143 2.187500 0.0
3.000000 2.187500 0.0
1.500000 2.231250 0.0
1.542857 2.231250 0.0
1.585714 2.231250 0.0
1.628571 2.231250 0.0
1.671429 2.231250 0.0
1.714286 2.231250 0.0
1.757143 2.231250 0.0
1.800000 2.231250 0.0
1.842857 2.231250 0.0
1.885714 2.231250 0.0
1.928571 2.231250 0.0
1.971429 2.231250 0.0
2.014286 2.231250 0.0
2.057143 2.231250 0.0
2.100000 2.231250 0.0
2.142857 2.231250 0.0
2.185714 2.231250 0.0
2.228571 2.231250 0.0
2.271429 2.231250 0.0
2.314286 2.231250 0.0
2.357143 2.231250 0.0
2.400000 2.231250 0.0
2.442857 2.231250 0.0
2.485714 2.231250 0.0
2.528571 2.231250 0.0
2.571429 2.231250 0.0
2.614286 2.231250 0.0
2.657143 2.231250 0.0
2.700000 2.231250 0.0
2.742857 2.231250 0.0
2.785714 2.231250 0.0
2.828571 2.231250 0.0
2.871429 2.231250 0.0
2.914286 2.231250 0.0
2.957143 2.231250 0.0
3.000000 2.231250 0.0
1.500000 2.275000 0.0
1.542857 2.275000 0.0
1.585714 2.275000 0.0
1.628571 2.275000 0.0
1.671429 2.275000 0.0
1.714286 2.275000 0.0
1.757143 2.275000 0.0
1.800000 2.275000 0.0
1.842857 2.275000 0.0
1.885714 2.275000 0.0
1.928571 2.275000 0.0
1.971429 2.275000 0.0
2.014286 2.275000 0.0
2.057143 2.275000 0.0
2.100000 2.275000 0.0
2.142857 2.275000 0.0
2.185714 2.275000 0.0
2.228571 2.275000 0.0
2.271429 2.275000 0.0
2.314286 2.275000 0.0
2.357143 2.275000 0.0
2.400000 2.275000 0.0
2.442857 2.275000 0.0
2.485714 2.275000 0.0
2.528571 2.275000 0.0
2.571429 2.275000 0.0
2.614286 2.275000 0.0
2.657143 2.275000 0.0
2.700000 2.275000 0.0
2.742857 2.275000 0.0
2.785714 2.275000 0.0
2.828571 2.275000 0.0
2.871429 2.275000 0.0
2.914286 2.275000 0.0
2.957143 2.275000 0.0
3.000000 2.275000 0.0
1.500000 2.318750 0.0
1.542857 2.318750 0.0
1.585714 2.318750 0.0
1.628571 2.318750 0.0
1.671429 2.318750 0.0
1.714286 2.318750 0.0
1.757143 2.318750 0.0
1.800000 2.318750 0.0
1.842857 2.318750 0.0
1.885714 2.318750 0.0
1.928571 2.318750 0.0
1.971429 2.318750 0.0
2.014286 2.318750 0.0
2.057143 2.318750 0.0
2.100000 2.318750 0.0
2.142857 2.318750 0.0
2.185714 2.318750 0.0
2.228571 2.318750 0.0
2.271429 2.318750 0.0
2.314286 2.318750 0.0
2.357143 2.318750 0.0
2.400000 2.318750 0.0
2.442857 2.318750 0.0
2.485714 2.318750 0.0
2.528571 2.318750 0.0
2.571429 2.318750 0.0
2.614286 2.318750 0.0
2.657143 2.318750 0.0
2.700000 2.318750 0.0
2.742857 2.318750 0.0
2.785714 2.318750 0.0
2.828571 2.318750 0.0
2.871429 2.318750 0.0
2.914286 2.318750 0.0
2.957143 2.318750 0.0
3.000000 2.318750 0.0
1.500000 2.362500 0.0
1.542857 2.362500 0.0
1.585714 2.362500 0.0
1.628571 2.362500 0.0
1.671429 2.362500 0.0
1.714286 2.362500 0.0
1.757143 2.362500 0.0
1.800000 2.362500 0.0
1.842857 2.362500 0.0
1.885714 2.362500 0.0
1.928571 2.362500 0.0
1.971429 2.362500 0.0
2.014286 2.362500 0.0
2.057143 2.362500 0.0
2.100000 2.362500 0.0
2.142857 2.362500 0.0
2.185714 2.362500 0.0
2.228571 2.362500 0.0
2.271429 2.362500 0.0
2.314286 2.362500 0.0
2.357143 2.362500 0.0
2.400000 2.362500 0.0
2.442857 2.362500 0.0
2.485714 2.362500 0.0
2.528571 2.362500 0.0
2.571429 2.362500 0.0
2.614286 2.362500 0.0
2.657143 2.362500 0.0
2.700000 2.362500 0.0
2.742857 2.362500 0.0
2.785714 2.362500 0.0
2.828571 2.362500 0.0
2.871429 2.362500 0.0
2.914286 2.362500 0.0
2.957143 2.362500 0.0
3.000000 2.362500 0.0
1.500000 2.406250 0.0
1.542857 2.406250 0.0
1.585714 2.406250 0.0
1.628571 2.406250 0.0
1.671429 2.406250 0.0
1.714286 2.406250 0.0
1.757143 2.406250 0.0
1.800000 2.406250 0.0
1.842857 2.406250 0.0
1.885714 2.406250 0.0
1.928571 2.406250 0.0
1.971429 2.406250 0.0
2.014286 2.406250 0.0
2.057143 2.406250 0.0
2.100000 2.406250 0.0
2.142857 2.406250 0.0
2.185714 2.406250 0.0
2.228571 2.406250 0.0
2.271429 2.406250 0.0
2.314286 2.406250 0.0
2.357143 2.406250 0.0
2.400000 2.406250 0.0
2.442857 2.406250 0.0
2.485714 2.406250 0.0
2.528571 2.406250 0.0
2.571429 2.406250 0.0
2.614286 2.406250 0.0
2.657143 2.406250 0.0
2.700000 2.406250 0.0
2.742857 2.406250 0.0
2.785714 2.406250 0.0
2.828571 2.406250 0.0
2.871429 2.406250 0.0
2.914286 2.406250 0.0
2.957143 2.406250 0.0
3.000000 2.406250 0.0
1.500000 2.450000 0.0
1.542857 2.450000 0.0
1.585714 2.450000 0.0
1.628571 2.450000 0.0
1.671429 2.450000 0.0
1.714286 2.450000 0.0
1.757143 2.450000 0.0
1.800000 2.450000 0.0
1.842857 2.450000 0.0
1.885714 2.450000 0.0
1.928571 2.450000 0.0
1.971429 2.450000 0.0
2.014286 2.450000 0.0
2.057143 2.450000 0.0
2.100000 2.450000 0.0
2.142857 2.450000 0.0
2.185714 2.450000 0.0
2.228571 2.450000 0.0
2.271429 2.450000 0.0
2.314286 2.450000 0.0
2.357143 2.450000 0.0
2.400000 2.450000 0.0
2.442857 2.450000 0.0
2.485714 2.450000 0.0
2.528571 2.450000 0.0
2.571429 2.450000 0.0
2.614286 2.450000 0.0
2.657143 2.450000 0.0
2.700000 2.450000 0.0
2.742857 2.450000 0.0
2.785714 2.450000 0.0
2.828571 2.450000 0.0
2.871429 2.450000 0.0
2.914286 2.450000 0.0
2.957143 2.450000 0.0
3.000000 2.450000 0.0
1.500000 2.493750 0.0
1.542857 2.493750 0.0
1.585714 2.493750 0.0
1.628571 2.493750 0.0
1.671429 2.493750 0.0
1.714286 2.493750 0.0
1.757143 2.493750 0.0
1.800000 2.493750 0.0
1.842857 2.493750 0.0
1.885714 2.493750 0.0
1.928571 2.493750 0.0
1.971429 2.493750 0.0
2.014286 2.493750 0.0
2.057143 2.493750 0.0
2.100000 2.493750 0.0
2.142857 2.493750 0.0
2.185714 2.493750 0.0
2.228571 2.493750 0.0
2.271429 2.493750 0.0
2.314286 2.493750 0.0
2.357143 2.493750 0.0
2.400000 2.493750 0.0
2.442857 2.493750 0.0
2.485714 2.493750 0.0
2.528571 2.493750 0.0
2.571429 2.493750 0.0
2.614286 2.493750 0.0
2.657143 2.493750 0.0
2.700000 2.493750 0.0
2.742857 2.493750 0.0
2.785714 2.493750 0.0
2.828571 2.493750 0.0
2.871429 2.493750 0.0
2.914286 2.493750 0.0
2.957143 2.493750 0.0
3.000000 2.493750 0.0
1.500000 2.537500 0.0
1.542857 2.537500 0.0
1.585714 2.537500 0.0
1.628571 2.537500 0.0
1.671429 2.537500 0.0
1.714286 2.537500 0.0
1.757143 2.537500 0.0
1.800000 2.537500 0.0
1.842857 2.537500 0.0
1.885714 2.537500 0.0
1.928571 2.537500 0.0
1.971429 2.537500 0.0
2.014286 2.537500 0.0
2.057143 2.537500 0.0
2.100000 2.537500 0.0
2.142857 2.537500 0.0
2.185714 2.537500 0.0
2.228571 2.537500 0.0
2.271429 2.537500 0.0
2.314286 2.537500 0.0
2.357143 2.537500 0.0
2.400000 2.537500 0.0
2.442857 2.537500 0.0
2.485714 2.537500 0.0
2.528571 2.537500 0.0
2.571429 2.537500 0.0
2.614286 2.537500 0.0
2.657143 2.537500 0.0
2.700000 2.537500 0.0
2.742857 2.537500 0.0
2.785714 2.537500 0.0
2.828571 2.537500 0.0
2.871429 2.537500 0.0
2.914286 2.537500 0.0
2.957143 2.537500 0.0
3.000000 2.537500 0.0
1.500000 2.581250 0.0
1.542857 2.581250 0.0
1.585714 2.581250 0.0
1.628571 2.581250 0.0
1.671429 2.581250 0.0
1.714286 2.581250 0.0
1.757143 2.581250 0.0
1.800000 2.581250 0.0
1.842857 2.581250 0.0
1.885714 2.581250 0.0
1.928571 2.581250 0.0
1.971429 2.581250 0.0
2.014286 2.581250 0.0
2.057143 2.581250 0.0
2.100000 2.581250 0.0
2.142857 2.581250 0.0
2.185714 2.581250 0.0
2.228571 2.581250 0.0
2.271429 2.581250 0.0
2.314286 2.581250 0.0
2.357143 2.581250 0.0
2.400000 2.581250 0.0
2.442857 2.581250 0.0
2.485714 2.581250 0.0
2.528571 2.581250 0.0
2.571429 2.581250 0.0
2.614286 2.581250 0.0
2.657143 2.581250 0.0
2.700000 2.581250 0.0
2.742857 2.581250 0.0
2.785714 2.581250 0.0
2.828571 2.581250 0.0
2.871429 2.581250 0.0
2.914286 2.581250 0.0
2.957143 2.581250 0.0
3.000000 2.581250 0.0
1.500000 2.625000 0.0
1.542857 2.625000 0.0
1.585714 2.625000 0.0
1.628571 2.625000 0.0
1.671429 2.625000 0.0
1.714286 2.625000 0.0
1.757143 2.625000 0.0
1.800000 2.625000 0.0
1.842857 2.625000 0.0
1.885714 2.625000 0.0
1.928571 2.625000 0.0
1.971429 2.625000 0.0
2.014286 2.625000 0.0
2.057143 2.625000 0.0
2.100000 2.625000 0.0
2.142857 2.625000 0.0
2.185714 2.625000 0.0
2.228571 2.625000 0.0
2.271429 2.625000 0.0
2.314286 2.625000 0.0
2.357143 2.625000 0.0
2.400000 2.625000 0.0
2.442857 2.625000 0.0
2.485714 2.625000 0.0
2.528571 2.625000 0.0
2.571429 2.625000 0.0
2.614286 2.625000 0.0
2.657143 2.625000 0.0
2.700000 2.625000 0.0
2.742857 2.625000 0.0
2.785714 2.625000 0.0
2.828571 2.625000 0.0
2.871429 2.625000 0.0
2.914286 2.625000 0.0
2.957143 2.625000 0.0
3.000000 2.625000 0.0
</DataArray></Points>
<PointData>
<DataArray NumberOfComponents="1" format="ascii" type ="Float32" Name="phi">
-0.288609
-0.282993
-0.269172
-0.250557
-0.226922
-0.198618
-0.167050
-0.133224
-0.097678
-0.060757
-0.021920
0.018351
0.058429
0.098420
0.138813
0.179496
0.220397
0.261473
0.302697
0.344039
0.385487
0.427040
0.468691
0.510422
0.552219
0.594075
0.636007
0.678054
0.715505
0.739659
0.748537
0.749632
0.749584
0.749535
0.749496
0.738542
-0.245692
-0.240776
-0.228510
-0.212205
-0.191786
-0.166706
-0.137893
-0.106479
-0.073129
-0.037890
0.000058
0.038684
0.076659
0.115295
0.154531
0.194243
0.234330
0.274728
0.315371
0.356201
0.397189
0.438326
0.479594
0.520966
0.562424
0.603963
0.644966
0.679436
0.699524
0.705677
0.705962
0.705894
0.705836
0.705786
0.705747
0.705730
-0.202532
-0.198276
-0.187246
-0.172430
-0.154454
-0.132281
-0.106072
-0.076877
-0.045244
-0.010964
0.025118
0.061298
0.097738
0.134985
0.172948
0.211524
0.250601
0.290117
0.329999
0.370170
0.410579
0.451205
0.492011
0.532957
0.574019
0.613118
0.643212
0.658491
0.662278
0.662298
0.662216
0.662146
0.662087
0.662037
0.661997
0.661980
-0.159161
-0.155555
-0.145624
-0.131823
-0.115601
-0.095830
-0.072010
-0.044853
-0.014480
0.018530
0.052357
0.086401
0.121342
0.157169
0.193838
0.231223
0.269185
0.307690
0.346688
0.386071
0.425769
0.465765
0.506009
0.546679
0.582787
0.606819
0.617008
0.618740
0.618649
0.618551
0.618468
0.618398
0.618339
0.618288
0.618247
0.618230
-0.115630
-0.112646
-0.103766
-0.090754
-0.075712
-0.057753
-0.035774
-0.010087
0.018756
0.049443
0.081085
0.113630
0.147139
0.181631
0.217031
0.253161
0.289939
0.327409
0.365484
0.403979
0.442836
0.482067
0.520350
0.551516
0.569485
0.575047
0.575159
0.575020
0.574903
0.574804
0.574721
0.574650
0.574590
0.574539
0.574498
0.574480
-0.072027
-0.069594
-0.061758
-0.049434
-0.034850
-0.017863
0.002896
0.026951
0.053267
0.081408
0.111160
0.142312
0.174600
0.207926
0.242101
0.277003
0.312696
0.349189
0.386278
0.423788
0.462066
0.495755
0.518672
0.529562
0.531733
0.531579
0.531414
0.531274
0.531156
0.531056
0.530973
0.530902
0.530841
0.530789
0.530748
0.530730
-0.027307
-0.025272
-0.018338
-0.006656
0.007681
0.023616
0.042406
0.064306
0.088435
0.114633
0.142709
0.172456
0.203548
0.235683
0.268656
0.302501
0.337270
0.372762
0.408770
0.442594
0.468884
0.483899
0.488352
0.488257
0.488029
0.487834
0.487667
0.487527
0.487408
0.487309
0.487224
0.487153
0.487092
0.487040
0.486998
0.486980
0.018398
0.020118
0.025976
0.036495
0.050108
0.064996
0.081835
0.101825
0.124485
0.149143
0.175705
0.204038
0.233807
0.264683
0.296600
0.329541
0.363338
0.395855
0.421241
0.437498
0.444519
0.445078
0.444777
0.444511
0.444283
0.444087
0.443920
0.443779
0.443660
0.443560
0.443476
0.443404
0.443343
0.443291
0.443248
0.443231
0.063020
0.064519
0.069478
0.078728
0.091460
0.105894
0.121895
0.140351
0.161458
0.184756
0.209949
0.236857
0.265267
0.294962
0.325882
0.355581
0.378479
0.393957
0.401370
0.402076
0.401686
0.401337
0.401031
0.400765
0.400536
0.400340
0.400173
0.400031
0.399912
0.399812
0.399727
0.399655
0.399594
0.399541
0.399499
0.399481
0.106716
0.108116
0.112685
0.121140
0.133072
0.146984
0.162324
0.179622
0.199324
0.221327
0.245220
0.270750
0.297881
0.322099
0.339985
0.353156
0.359118
0.359283
0.358784
0.358337
0.357940
0.357590
0.357284
0.357018
0.356789
0.356592
0.356425
0.356283
0.356164
0.356063
0.355978
0.355906
0.355844
0.355791
0.355749
0.355731
0.150450
0.151762
0.155985
0.163733
0.174890
0.188265
0.203048
0.219450
0.237943
0.258678
0.278096
0.292844
0.305730
0.314988
0.317317
0.316706
0.316095
0.315539
0.315039
0.314591
0.314194
0.313844
0.313537
0.313271
0.313041
0.312844
0.312676
0.312534
0.312415
0.312314
0.312229
0.312156
0.312095
0.312042
0.311999
0.311981
0.194191
0.195424
0.199352
0.206484
0.216902
0.229716
0.240543
0.248529
0.257053
0.266659
0.274006
0.275897
0.275122
0.274350
0.273629
0.272962
0.272350
0.271794
0.271293
0.270845
0.270447
0.270096
0.269789
0.269523
0.269293
0.269095
0.268928
0.268786
0.268666
0.268565
0.268480
0.268407
0.268345
0.268292
0.268249
0.268231
0.216831
0.217385
0.219141
0.222338
0.227072
0.232975
0.236141
0.235706
0.234823
0.233931
0.233051
0.232196
0.231378
0.230606
0.229885
0.229217
0.228604
0.228048
0.227546
0.227098
0.226699
0.226348
0.226041
0.225774
0.225544
0.225347
0.225179
0.225036
0.224916
0.224815
0.224730
0.224657
0.224595
0.224542
0.224499
0.224481
0.195721
0.195631
0.195354
0.194906
0.194313
0.193605
0.192812
0.191961
0.191079
0.190189
0.189308
0.188453
0.187636
0.186863
0.186141
0.185472
0.184859
0.184302
0.183800
0.183350
0.182952
0.182600
0.182293
0.182025
0.181795
0.181597
0.181429
0.181287
0.181167
0.181066
0.180980
0.180908
0.180845
0.180792
0.180749
0.180731
0.151965
0.151876
0.151601
0.151156
0.150566
0.149860
0.149068
0.148218
0.147337
0.146447
0.145566
0.144711
0.143893
0.143119
0.142396
0.141727
0.141113
0.140555
0.140052
0.139603
0.139204
0.138852
0.138544
0.138276
0.138046
0.137848
0.137680
0.137537
0.137417
0.137316
0.137231
0.137158
0.137096
0.137042
0.136999
0.136981
0.108218
0.108129
0.107855
0.107411
0.106821
0.106116
0.105325
0.104476
0.103596
0.102706
0.101825
0.100969
0.100150
0.099376
0.098652
0.097982
0.097367
0.096809
0.096305
0.095855
0.095455
0.095103
0.094795
0.094527
0.094296
0.094099
0.093930
0.093788
0.093668
0.093566
0.093481
0.093408
0.093346
0.093292
0.093249
0.093231
0.064489
0.064401
0.064127
0.063683
0.063094
0.062388
0.061597
0.060747
0.059865
0.058972
0.058089
0.057232
0.056410
0.055634
0.054908
0.054237
0.053621
0.053061
0.052556
0.052106
0.051705
0.051353
0.051044
0.050776
0.050545
0.050347
0.050179
0.050036
0.049916
0.049815
0.049729
0.049657
0.049595
0.049541
0.049499
0.049480
0.020236
0.020152
0.019895
0.019479
0.018926
0.018263
0.017516
0.016712
0.015875
0.015027
0.014187
0.013369
0.012584
0.011840
0.011142
0.010495
0.009900
0.009358
0.008868
0.008428
0.008036
0.007689
0.007384
0.007118
0.006888
0.006689
0.006518
0.006372
0.006248
0.006142
0.006051
0.005973
0.005904
0.005846
0.005802
0.005784
-0.024390
-0.024462
-0.024684
-0.025043
-0.025524
-0.026104
-0.026761
-0.027474
-0.028222
-0.028986
-0.029751
-0.030507
-0.031246
-0.031957
-0.032625
-0.033246
-0.033819
-0.034343
-0.034819
-0.035248
-0.035631
-0.035972
-0.036273
-0.036538
-0.036768
-0.036968
-0.037141
-0.037290
-0.037419
-0.037529
-0.037626
-0.037710
-0.037785
-0.037849
-0.037894
-0.037911
-0.068482
-0.068548
-0.068752
-0.069083
-0.069527
-0.070067
-0.070681
-0.071352
-0.072060
-0.072788
-0.073523
-0.074258
-0.074990
-0.075701
-0.076370
-0.076992
-0.077566
-0.078090
-0.078567
-0.078996
-0.079380
-0.079721
-0.080022
-0.080287
-0.080518
-0.080718
-0.080891
-0.081040
-0.081169
-0.081279
-0.081376
-0.081460
-0.081535
-0.081599
-0.081644
-0.081661
-0.112220
-0.112286
-0.112490
-0.112821
-0.113266
-0.113806
-0.114422
-0.115092
-0.115801
-0.116530
-0.117265
-0.118001
-0.118734
-0.119445
-0.120115
-0.120738
-0.121312
-0.121837
-0.122314
-0.122744
-0.123128
-0.123470
-0.123771
-0.124036
-0.124267
-0.124467
-0.124641
-0.124790
-0.124918
-0.125029
-0.125125
-0.125210
-0.125285
-0.125348
-0.125394
-0.114473
</DataArray>
<DataArray NumberOfComponents="1" format="ascii" type ="Float32" Name="u">
0.000082
0.000034
-0.000012
-0.000048
-0.000069
-0.000063
0.000010
0.000253
0.000873
0.002269
0.004952
0.009733
0.010354
0.009485
0.008260
0.007062
0.005995
0.005075
0.004294
0.003638
0.003089
0.002632
0.002252
0.001936
0.001673
0.001455
0.001274
0.001125
0.001003
0.000906
0.000829
0.000772
0.000733
0.000709
0.000700
0.000700
0.000102
0.000040
-0.000013
-0.000041
-0.000023
0.000070
0.000312
0.000905
0.002105
0.004348
0.008522
0.011836
0.011672
0.010459
0.009082
0.007804
0.006684
0.005720
0.004899
0.004202
0.003614
0.003118
0.002702
0.002352
0.002059
0.001815
0.001611
0.001442
0.001304
0.001192
0.001104
0.001036
0.000986
0.000951
0.000930
0.000930
0.000111
0.000046
0.000003
0.000015
0.000131
0.000428
0.001011
0.002222
0.004161
0.007769
0.012126
0.013180
0.012336
0.010951
0.009542
0.008263
0.007144
0.006176
0.005346
0.004635
0.004029
0.003514
0.003077
0.002707
0.002394
0.002131
0.001911
0.001728
0.001577
0.001454
0.001357
0.001282
0.001226
0.001189
0.001169
0.001169
0.000083
0.000078
0.000124
0.000252
0.000558
0.001248
0.002420
0.004469
0.007639
0.011753
0.014072
0.013733
0.012472
0.011033
0.009670
0.008450
0.007379
0.006446
0.005637
0.004938
0.004336
0.003818
0.003375
0.002996
0.002674
0.002401
0.002171
0.001979
0.001820
0.001690
0.001587
0.001507
0.001449
0.001412
0.001394
0.001394
0.000013
0.000207
0.000547
0.000971
0.001575
0.002848
0.005150
0.007985
0.011591
0.014071
0.014411
0.013464
0.012121
0.010765
0.009517
0.008403
0.007416
0.006548
0.005785
0.005119
0.004538
0.004034
0.003598
0.003222
0.002899
0.002624
0.002391
0.002194
0.002031
0.001898
0.001791
0.001709
0.001650
0.001614
0.001597
0.001597
-0.000041
0.000439
0.001407
0.002499
0.003802
0.005759
0.008543
0.011300
0.013498
0.014191
0.013703
0.012633
0.011415
0.010235
0.009150
0.008171
0.007293
0.006508
0.005810
0.005192
0.004646
0.004168
0.003749
0.003386
0.003071
0.002800
0.002569
0.002374
0.002210
0.002076
0.001969
0.001887
0.001828
0.001792
0.001775
0.001775
-0.000064
0.001064
0.002556
0.004272
0.006324
0.008581
0.010550
0.012293
0.013136
0.013106
0.012450
0.011515
0.010516
0.009548
0.008644
0.007811
0.007051
0.006360
0.005735
0.005175
0.004674
0.004230
0.003838
0.003493
0.003192
0.002932
0.002708
0.002518
0.002358
0.002226
0.002121
0.002040
0.001982
0.001946
0.001929
0.001929
-0.000055
0.001815
0.003452
0.005304
0.007393
0.009255
0.010527
0.011444
0.011800
0.011606
0.011051
0.010330
0.009560
0.008797
0.008064
0.007373
0.006728
0.006132
0.005585
0.005086
0.004636
0.004231
0.003870
0.003550
0.003268
0.003023
0.002810
0.002628
0.002475
0.002348
0.002246
0.002167
0.002111
0.002076
0.002060
0.002060
-0.000009
0.001976
0.003659
0.005400
0.007109
0.008455
0.009452
0.010066
0.010271
0.010115
0.009721
0.009202
0.008629
0.008041
0.007459
0.006895
0.006358
0.005851
0.005379
0.004943
0.004544
0.004182
0.003855
0.003563
0.003304
0.003076
0.002878
0.002707
0.002562
0.002442
0.002345
0.002270
0.002217
0.002183
0.002168
0.002168
0.000015
0.001763
0.003383
0.004932
0.006310
0.007382
0.008188
0.008676
0.008857
0.008783
0.008533
0.008175
0.007759
0.007313
0.006857
0.006403
0.005961
0.005537
0.005136
0.004760
0.004412
0.004093
0.003802
0.003540
0.003305
0.003097
0.002915
0.002758
0.002623
0.002511
0.002421
0.002351
0.002301
0.002269
0.002254
0.002254
0.000005
0.001525
0.002966
0.004295
0.005435
0.006334
0.007010
0.007437
0.007629
0.007630
0.007489
0.007254
0.006958
0.006626
0.006273
0.005913
0.005554
0.005204
0.004868
0.004549
0.004250
0.003973
0.003718
0.003486
0.003277
0.003090
0.002926
0.002783
0.002660
0.002558
0.002475
0.002410
0.002364
0.002334
0.002320
0.002320
-0.000014
0.001291
0.002533
0.003662
0.004624
0.005396
0.005981
0.006370
0.006577
0.006633
0.006573
0.006429
0.006226
0.005983
0.005715
0.005434
0.005148
0.004863
0.004586
0.004319
0.004066
0.003829
0.003609
0.003408
0.003225
0.003060
0.002914
0.002786
0.002676
0.002584
0.002509
0.002450
0.002408
0.002381
0.002368
0.002368
-0.000029
0.001078
0.002134
0.003091
0.003911
0.004580
0.005095
0.005455
0.005672
0.005767
0.005765
0.005688
0.005557
0.005386
0.005189
0.004974
0.004750
0.004524
0.004299
0.004080
0.003870
0.003671
0.003484
0.003312
0.003154
0.003012
0.002884
0.002772
0.002675
0.002594
0.002527
0.002475
0.002437
0.002413
0.002400
0.002400
-0.000038
0.000893
0.001784
0.002594
0.003296
0.003878
0.004335
0.004670
0.004890
0.005011
0.005051
0.005026
0.004951
0.004839
0.004699
0.004541
0.004371
0.004195
0.004018
0.003842
0.003671
0.003507
0.003353
0.003209
0.003075
0.002954
0.002845
0.002749
0.002665
0.002594
0.002536
0.002490
0.002457
0.002436
0.002425
0.002425
-0.000043
0.000737
0.001485
0.002172
0.002775
0.003283
0.003692
0.004003
0.004223
0.004363
0.004434
0.004449
0.004420
0.004356
0.004265
0.004156
0.004033
0.003901
0.003766
0.003629
0.003494
0.003363
0.003237
0.003119
0.003009
0.002908
0.002817
0.002736
0.002665
0.002604
0.002554
0.002515
0.002486
0.002468
0.002458
0.002458
-0.000047
0.000611
0.001245
0.001833
0.002356
0.002806
0.003178
0.003473
0.003695
0.003850
0.003948
0.003998
0.004007
0.003985
0.003937
0.003869
0.003787
0.003695
0.003596
0.003494
0.003391
0.003289
0.003190
0.003095
0.003006
0.002923
0.002848
0.002780
0.002720
0.002669
0.002627
0.002594
0.002569
0.002553
0.002544
0.002544
-0.000050
0.000526
0.001085
0.001608
0.002083
0.002501
0.002856
0.003150
0.003383
0.003560
0.003687
0.003772
0.003819
0.003835
0.003826
0.003797
0.003751
0.003693
0.003627
0.003554
0.003477
0.003399
0.003322
0.003247
0.003174
0.003106
0.003043
0.002986
0.002936
0.002892
0.002855
0.002826
0.002804
0.002790
0.002783
0.002783
-0.000044
0.000516
0.001062
0.001579
0.002057
0.002486
0.002861
0.003181
0.003447
0.003662
0.003829
0.003954
0.004042
0.004097
0.004124
0.004129
0.004114
0.004085
0.004043
0.003992
0.003935
0.003874
0.003811
0.003748
0.003686
0.003626
0.003570
0.003518
0.003472
0.003431
0.003397
0.003370
0.003350
0.003336
0.003329
0.003329
-0.000025
0.000569
0.001150
0.001703
0.002218
0.002686
0.003101