<VTKFile type="StructuredGrid" version="0.1" byte_order="LittleEndian">
<StructuredGrid WholeExtent="1 71 1 81 0 0">
<Piece Extent="36 71 21 41 0 0">
<PointData></PointData>
<CellData></CellData>
<Points>
<DataArray NumberOfComponents="3" format="ascii" type ="Float32" Name="mesh">
1.500000 0.875000 0.0
1.542857 0.875000 0.0
1.585714 0.875000 0.0
1.628571 0.875000 0.0
1.671429 0.875000 0.0
1.714286 0.875000 0.0
1.757143 0.875000 0.0
1.800000 0.875000 0.0
1.842857 0.875000 0.0
1.885714 0.875000 0.0
1.928571 0.875000 0.0
1.971429 0.875000 0.0
2.014286 0.875000 0.0
2.057143 0.875000 0.0
2.100000 0.875000 0.0
2.142857 0.875000 0.0
2.185714 0.875000 0.0
2.228571 0.875000 0.0
2.271429 0.875000 0.0
2.314286 0.875000 0.0
2.357143 0.875000 0.0
2.400000 0.875000 0.0
2.442857 0.875000 0.0
2.485714 0.875000 0.0
2.528571 0.875000 0.0
2.571429 0.875000 0.0
2.614286 0.875000 0.0
2.657143 0.875000 0.0
2.700000 0.875000 0.0
2.742857 0.875000 0.0
2.785714 0.875000 0.0
2.828571 0.875000 0.0
2.871429 0.875000 0.0
2.914286 0.875000 0.0
2.957143 0.875000 0.0
3.000000 0.875000 0.0
1.500000 0.918750 0.0
1.542857 0.918750 0.0
1.585714 0.918750 0.0
1.628571 0.918750 0.0
1.671429 0.918750 0.0
1.714286 0.918750 0.0
1.757143 0.918750 0.0
1.800000 0.918750 0.0
1.842857 0.918750 0.0
1.885714 0.918750 0.0
1.928571 0.918750 0.0
1.971429 0.918750 0.0
2.014286 0.918750 0.0
2.057143 0.918750 0.0
2.100000 0.918750 0.0
2.142857 0.918750 0.0
2.185714 0.918750 0.0
2.228571 0.918750 0.0
2.271429 0.918750 0.0
2.314286 0.918750 0.0
2.357143 0.918750 0.0
2.400000 0.918750 0.0
2.442857 0.918750 0.0
2.485714 0.918750 0.0
2.528571 0.918750 0.0
2.571429 0.918750 0.0
2.614286 0.918750 0.0
2.657143 0.918750 0.0
2.700000 0.918750 0.0
2.742857 0.918750 0.0
2.785714 0.918750 0.0
2.828571 0.918750 0.0
2.871429 0.918750 0.0
2.914286 0.918750 0.0
2.957143 0.918750 0.0
3.000000 0.918750 0.0
1.500000 0.962500 0.0
1.542857 0.962500 0.0
1.585714 0.962500 0.0
1.628571 0.962500 0.0
1.671429 0.962500 0.0
1.714286 0.962500 0.0
1.757143 0.962500 0.0
1.800000 0.962500 0.0
1.842857 0.962500 0.0
1.885714 0.962500 0.0
1.928571 0.962500 0.0
1.971429 0.962500 0.0
2.014286 0.962500 0.0
2.057143 0.962500 0.0
2.100000 0.962500 0.0
2.142857 0.962500 0.0
2.185714 0.962500 0.0
2.228571 0.962500 0.0
2.271429 0.962500 0.0
2.314286 0.962500 0.0
2.357143 0.962500 0.0
2.400000 0.962500 0.0
2.442857 0.962500 0.0
2.485714 0.962500 0.0
2.528571 0.962500 0.0
2.571429 0.962500 0.0
2.614286 0.962500 0.0
2.657143 0.962500 0.0
2.700000 0.962500 0.0
2.742857 0.962500 0.0
2.785714 0.962500 0.0
2.828571 0.962500 0.0
2.871429 0.962500 0.0
2.914286 0.962500 0.0
2.957143 0.962500 0.0
3.000000 0.962500 0.0
1.500000 1.006250 0.0
1.542857 1.006250 0.0
1.585714 1.006250 0.0
1.628571 1.006250 0.0
1.671429 1.006250 0.0
1.714286 1.006250 0.0
1.757143 1.006250 0.0
1.800000 1.006250 0.0
1.842857 1.006250 0.0
1.885714 1.006250 0.0
1.928571 1.006250 0.0
1.971429 1.006250 0.0
2.014286 1.006250 0.0
2.057143 1.006250 0.0
2.100000 1.006250 0.0
2.142857 1.006250 0.0
2.185714 1.006250 0.0
2.228571 1.006250 0.0
2.271429 1.006250 0.0
2.314286 1.006250 0.0
2.357143 1.006250 0.0
2.400000 1.006250 0.0
2.442857 1.006250 0.0
2.485714 1.006250 0.0
2.528571 1.006250 0.0
2.571429 1.006250 0.0
2.614286 1.006250 0.0
2.657143 1.006250 0.0
2.700000 1.006250 0.0
2.742857 1.006250 0.0
2.785714 1.006250 0.0
2.828571 1.006250 0.0
2.871429 1.006250 0.0
2.914286 1.006250 0.0
2.957143 1.006250 0.0
3.000000 1.006250 0.0
1.500000 1.050000 0.0
1.542857 1.050000 0.0
1.585714 1.050000 0.0
1.628571 1.050000 0.0
1.671429 1.050000 0.0
1.714286 1.050000 0.0
1.757143 1.050000 0.0
1.800000 1.050000 0.0
1.842857 1.050000 0.0
1.885714 1.050000 0.0
1.928571 1.050000 0.0
1.971429 1.050000 0.0
2.014286 1.050000 0.0
2.057143 1.050000 0.0
2.100000 1.050000 0.0
2.142857 1.050000 0.0
2.185714 1.050000 0.0
2.228571 1.050000 0.0
2.271429 1.050000 0.0
2.314286 1.050000 0.0
2.357143 1.050000 0.0
2.400000 1.050000 0.0
2.442857 1.050000 0.0
2.485714 1.050000 0.0
2.528571 1.050000 0.0
2.571429 1.050000 0.0
2.614286 1.050000 0.0
2.657143 1.050000 0.0
2.700000 1.050000 0.0
2.742857 1.050000 0.0
2.785714 1.050000 0.0
2.828571 1.050000 0.0
2.871429 1.050000 0.0
2.914286 1.050000 0.0
2.957143 1.050000 0.0
3.000000 1.050000 0.0
1.500000 1.093750 0.0
1.542857 1.093750 0.0
1.585714 1.093750 0.0
1.628571 1.093750 0.0
1.671429 1.093750 0.0
1.714286 1.093750 0.0
1.757143 1.093750 0.0
1.800000 1.093750 0.0
1.842857 1.093750 0.0
1.885714 1.093750 0.0
1.928571 1.093750 0.0
1.971429 1.093750 0.0
2.014286 1.093750 0.0
2.057143 1.093750 0.0
2.100000 1.093750 0.0
2.142857 1.093750 0.0
2.185714 1.093750 0.0
2.228571 1.093750 0.0
2.271429 1.093750 0.0
2.314286 1.093750 0.0
2.357143 1.093750 0.0
2.400000 1.093750 0.0
2.442857 1.093750 0.0
2.485714 1.093750 0.0
2.528571 1.093750 0.0
2.571429 1.093750 0.0
2.614286 1.093750 0.0
2.657143 1.093750 0.0
2.700000 1.093750 0.0
2.742857 1.093750 0.0
2.785714 1.093750 0.0
2.828571 1.093750 0.0
2.871429 1.093750 0.0
2.914286 1.093750 0.0
2.957143 1.093750 0.0
3.000000 1.093750 0.0
1.500000 1.137500 0.0
1.542857 1.137500 0.0
1.585714 1.137500 0.0
1.628571 1.137500 0.0
1.671429 1.137500 0.0
1.714286 1.137500 0.0
1.757143 1.137500 0.0
1.800000 1.137500 0.0
1.842857 1.137500 0.0
1.885714 1.137500 0.0
1.928571 1.137500 0.0
1.971429 1.137500 0.0
2.014286 1.137500 0.0
2.057143 1.137500 0.0
2.100000 1.137500 0.0
2.142857 1.137500 0.0
2.185714 1.137500 0.0
2.228571 1.137500 0.0
2.271429 1.137500 0.0
2.314286 1.137500 0.0
2.357143 1.137500 0.0
2.400000 1.137500 0.0
2.442857 1.137500 0.0
2.485714 1.137500 0.0
2.528571 1.137500 0.0
2.571429 1.137500 0.0
2.614286 1.137500 0.0
2.657143 1.137500 0.0
2.700000 1.137500 0.0
2.742857 1.137500 0.0
2.785714 1.137500 0.0
2.828571 1.137500 0.0
2.871429 1.137500 0.0
2.914286 1.137500 0.0
2.957143 1.137500 0.0
3.000000 1.137500 0.0
1.500000 1.181250 0.0
1.542857 1.181250 0.0
1.585714 1.181250 0.0
1.628571 1.181250 0.0
1.671429 1.181250 0.0
1.714286 1.181250 0.0
1.757143 1.181250 0.0
1.800000 1.181250 0.0
1.842857 1.181250 0.0
1.885714 1.181250 0.0
1.928571 1.181250 0.0
1.971429 1.181250 0.0
2.014286 1.181250 0.0
2.057143 1.181250 0.0
2.100000 1.181250 0.0
2.142857 1.181250 0.0
2.185714 1.181250 0.0
2.228571 1.181250 0.0
2.271429 1.181250 0.0
2.314286 1.181250 0.0
2.357143 1.181250 0.0
2.400000 1.181250 0.0
2.442857 1.181250 0.0
2.485714 1.181250 0.0
2.528571 1.181250 0.0
2.571429 1.181250 0.0
2.614286 1.181250 0.0
2.657143 1.181250 0.0
2.700000 1.181250 0.0
2.742857 1.181250 0.0
2.785714 1.181250 0.0
2.828571 1.181250 0.0
2.871429 1.181250 0.0
2.914286 1.181250 0.0
2.957143 1.181250 0.0
3.000000 1.181250 0.0
1.500000 1.225000 0.0
1.542857 1.225000 0.0
1.585714 1.225000 0.0
1.628571 1.225000 0.0
1.671429 1.225000 0.0
1.714286 1.225000 0.0
1.757143 1.225000 0.0
1.800000 1.225000 0.0
1.842857 1.225000 0.0
1.885714 1.225000 0.0
1.928571 1.225000 0.0
1.971429 1.225000 0.0
2.014286 1.225000 0.0
2.057143 1.225000 0.0
2.100000 1.225000 0.0
2.142857 1.225000 0.0
2.185714 1.225000 0.0
2.228571 1.225000 0.0
2.271429 1.225000 0.0
2.314286 1.225000 0.0
2.357143 1.225000 0.0
2.400000 1.225000 0.0
2.442857 1.225000 0.0
2.485714 1.225000 0.0
2.528571 1.225000 0.0
2.571429 1.225000 0.0
2.614286 1.225000 0.0
2.657143 1.225000 0.0
2.700000 1.225000 0.0
2.742857 1.225000 0.0
2.785714 1.225000 0.0
2.828571 1.225000 0.0
2.871429 1.225000 0.0
2.914286 1.225000 0.0
2.957143 1.225000 0.0
3.000000 1.225000 0.0
1.500000 1.268750 0.0
1.542857 1.268750 0.0
1.585714 1.268750 0.0
1.628571 1.268750 0.0
1.671429 1.268750 0.0
1.714286 1.268750 0.0
1.757143 1.268750 0.0
1.800000 1.268750 0.0
1.842857 1.268750 0.0
1.885714 1.268750 0.0
1.928571 1.268750 0.0
1.971429 1.268750 0.0
2.014286 1.268750 0.0
2.057143 1.268750 0.0
2.100000 1.268750 0.0
2.142857 1.268750 0.0
2.185714 1.268750 0.0
2.228571 1.268750 0.0
2.271429 1.268750 0.0
2.314286 1.268750 0.0
2.357143 1.268750 0.0
2.400000 1.268750 0.0
2.442857 1.268750 0.0
2.485714 1.268750 0.0
2.528571 1.268750 0.0
2.571429 1.268750 0.0
2.614286 1.268750 0.0
2.657143 1.268750 0.0
2.700000 1.268750 0.0
2.742857 1.268750 0.0
2.785714 1.268750 0.0
2.828571 1.268750 0.0
2.871429 1.268750 0.0
2.914286 1.268750 0.0
2.957143 1.268750 0.0
3.000000 1.268750 0.0
1.500000 1.312500 0.0
1.542857 1.312500 0.0
1.585714 1.312500 0.0
1.628571 1.312500 0.0
1.671429 1.312500 0.0
1.714286 1.312500 0.0
1.757143 1.312500 0.0
1.800000 1.312500 0.0
1.842857 1.312500 0.0
1.885714 1.312500 0.0
1.928571 1.312500 0.0
1.971429 1.312500 0.0
2.014286 1.312500 0.0
2.057143 1.312500 0.0
2.100000 1.312500 0.0
2.142857 1.312500 0.0
2.185714 1.312500 0.0
2.228571 1.312500 0.0
2.271429 1.312500 0.0
2.314286 1.312500 0.0
2.357143 1.312500 0.0
2.400000 1.312500 0.0
2.442857 1.312500 0.0
2.485714 1.312500 0.0
2.528571 1.312500 0.0
2.571429 1.312500 0.0
2.614286 1.312500 0.0
2.657143 1.312500 0.0
2.700000 1.312500 0.0
2.742857 1.312500 0.0
2.785714 1.312500 0.0
2.828571 1.312500 0.0
2.871429 1.312500 0.0
2.914286 1.312500 0.0
2.957143 1.312500 0.0
3.000000 1.312500 0.0
1.500000 1.356250 0.0
1.542857 1.356250 0.0
1.585714 1.356250 0.0
1.628571 1.356250 0.0
1.671429 1.356250 0.0
1.714286 1.356250 0.0
1.757143 1.356250 0.0
1.800000 1.356250 0.0
1.842857 1.356250 0.0
1.885714 1.356250 0.0
1.928571 1.356250 0.0
1.971429 1.356250 0.0
2.014286 1.356250 0.0
2.057143 1.356250 0.0
2.100000 1.356250 0.0
2.142857 1.356250 0.0
2.185714 1.356250 0.0
2.228571 1.356250 0.0
2.271429 1.356250 0.0
2.314286 1.356250 0.0
2.357143 1.356250 0.0
2.400000 1.356250 0.0
2.442857 1.356250 0.0
2.485714 1.356250 0.0
2.528571 1.356250 0.0
2.571429 1.356250 0.0
2.614286 1.356250 0.0
2.657143 1.356250 0.0
2.700000 1.356250 0.0
2.742857 1.356250 0.0
2.785714 1.356250 0.0
2.828571 1.356250 0.0
2.871429 1.356250 0.0
2.914286 1.356250 0.0
2.957143 1.356250 0.0
3.000000 1.356250 0.0
1.500000 1.400000 0.0
1.542857 1.400000 0.0
1.585714 1.400000 0.0
1.628571 1.400000 0.0
1.671429 1.400000 0.0
1.714286 1.400000 0.0
1.757143 1.400000 0.0
1.800000 1.400000 0.0
1.842857 1.400000 0.0
1.885714 1.400000 0.0
1.928571 1.400000 0.0
1.971429 1.400000 0.0
2.014286 1.400000 0.0
2.057143 1.400000 0.0
2.100000 1.400000 0.0
2.142857 1.400000 0.0
2.185714 1.400000 0.0
2.228571 1.400000 0.0
2.271429 1.400000 0.0
2.314286 1.400000 0.0
2.357143 1.400000 0.0
2.400000 1.400000 0.0
2.442857 1.400000 0.0
2.485714 1.400000 0.0
2.528571 1.400000 0.0
2.571429 1.400000 0.0
2.614286 1.400000 0.0
2.657143 1.400000 0.0
2.700000 1.400000 0.0
2.742857 1.400000 0.0
2.785714 1.400000 0.0
2.828571 1.400000 0.0
2.871429 1.400000 0.0
2.914286 1.400000 0.0
2.957143 1.400000 0.0
3.000000 1.400000 0.0
1.500000 1.443750 0.0
1.542857 1.443750 0.0
1.585714 1.443750 0.0
1.628571 1.443750 0.0
1.671429 1.443750 0.0
1.714286 1.443750 0.0
1.757143 1.443750 0.0
1.800000 1.443750 0.0
1.842857 1.443750 0.0
1.885714 1.443750 0.0
1.928571 1.443750 0.0
1.971429 1.443750 0.0
2.014286 1.443750 0.0
2.057143 1.443750 0.0
2.100000 1.443750 0.0
2.142857 1.443750 0.0
2.185714 1.443750 0.0
2.228571 1.443750 0.0
2.271429 1.443750 0.0
2.314286 1.443750 0.0
2.357143 1.443750 0.0
2.400000 1.443750 0.0
2.442857 1.443750 0.0
2.485714 1.443750 0.0
2.528571 1.443750 0.0
2.571429 1.443750 0.0
2.614286 1.443750 0.0
2.657143 1.443750 0.0
2.700000 1.443750 0.0
2.742857 1.443750 0.0
2.785714 1.443750 0.0
2.828571 1.443750 0.0
2.871429 1.443750 0.0
2.914286 1.443750 0.0
2.957143 1.443750 0.0
3.000000 1.443750 0.0
1.500000 1.487500 0.0
1.542857 1.487500 0.0
1.585714 1.487500 0.0
1.628571 1.487500 0.0
1.671429 1.487500 0.0
1.714286 1.487500 0.0
1.757143 1.487500 0.0
1.800000 1.487500 0.0
1.842857 1.487500 0.0
1.885714 1.487500 0.0
1.928571 1.487500 0.0
1.971429 1.487500 0.0
2.014286 1.487500 0.0
2.057143 1.487500 0.0
2.100000 1.487500 0.0
2.142857 1.487500 0.0
2.185714 1.487500 0.0
2.228571 1.487500 0.0
2.271429 1.487500 0.0
2.314286 1.487500 0.0
2.357143 1.487500 0.0
2.400000 1.487500 0.0
2.442857 1.487500 0.0
2.485714 1.487500 0.0
2.528571 1.487500 0.0
2.571429 1.487500 0.0
2.614286 1.487500 0.0
2.657143 1.487500 0.0
2.700000 1.487500 0.0
2.742857 1.487500 0.0
2.785714 1.487500 0.0
2.828571 1.487500 0.0
2.871429 1.487500 0.0
2.914286 1.487500 0.0
2.957143 1.487500 0.0
3.000000 1.487500 0.0
1.500000 1.531250 0.0
1.542857 1.531250 0.0
1.585714 1.531250 0.0
1.628571 1.531250 0.0
1.671429 1.531250 0.0
1.714286 1.531250 0.0
1.757143 1.531250 0.0
1.800000 1.531250 0.0
1.842857 1.531250 0.0
1.885714 1.531250 0.0
1.928571 1.531250 0.0
1.971429 1.531250 0.0
2.014286 1.531250 0.0
2.057143 1.531250 0.0
2.100000 1.531250 0.0
2.142857 1.531250 0.0
2.185714 1.531250 0.0
2.228571 1.531250 0.0
2.271429 1.531250 0.0
2.314286 1.531250 0.0
2.357143 1.531250 0.0
2.400000 1.531250 0.0
2.442857 1.531250 0.0
2.485714 1.531250 0.0
2.528571 1.531250 0.0
2.571429 1.531250 0.0
2.614286 1.531250 0.0
2.657143 1.531250 0.0
2.700000 1.531250 0.0
2.742857 1.531250 0.0
2.785714 1.531250 0.0
2.828571 1.531250 0.0
2.871429 1.531250 0.0
2.914286 1.531250 0.0
2.957143 1.531250 0.0
3.000000 1.531250 0.0
1.500000 1.575000 0.0
1.542857 1.575000 0.0
1.585714 1.575000 0.0
1.628571 1.575000 0.0
1.671429 1.575000 0.0
1.714286 1.575000 0.0
1.757143 1.575000 0.0
1.800000 1.575000 0.0
1.842857 1.575000 0.0
1.885714 1.575000 0.0
1.928571 1.575000 0.0
1.971429 1.575000 0.0
2.014286 1.575000 0.0
2.057143 1.575000 0.0
2.100000 1.575000 0.0
2.142857 1.575000 0.0
2.185714 1.575000 0.0
2.228571 1.575000 0.0
2.271429 1.575000 0.0
2.314286 1.575000 0.0
2.357143 1.575000 0.0
2.400000 1.575000 0.0
2.442857 1.575000 0.0
2.485714 1.575000 0.0
2.528571 1.575000 0.0
2.571429 1.575000 0.0
2.614286 1.575000 0.0
2.657143 1.575000 0.0
2.700000 1.575000 0.0
2.742857 1.575000 0.0
2.785714 1.575000 0.0
2.828571 1.575000 0.0
2.871429 1.575000 0.0
2.914286 1.575000 0.0
2.957143 1.575000 0.0
3.000000 1.575000 0.0
1.500000 1.618750 0.0
1.542857 1.618750 0.0
1.585714 1.618750 0.0
1.628571 1.618750 0.0
1.671429 1.618750 0.0
1.714286 1.618750 0.0
1.757143 1.618750 0.0
1.800000 1.618750 0.0
1.842857 1.618750 0.0
1.885714 1.618750 0.0
1.928571 1.618750 0.0
1.971429 1.618750 0.0
2.014286 1.618750 0.0
2.057143 1.618750 0.0
2.100000 1.618750 0.0
2.142857 1.618750 0.0
2.185714 1.618750 0.0
2.228571 1.618750 0.0
2.271429 1.618750 0.0
2.314286 1.618750 0.0
2.357143 1.618750 0.0
2.400000 1.618750 0.0
2.442857 1.618750 0.0
2.485714 1.618750 0.0
2.528571 1.618750 0.0
2.571429 1.618750 0.0
2.614286 1.618750 0.0
2.657143 1.618750 0.0
2.700000 1.618750 0.0
2.742857 1.618750 0.0
2.785714 1.618750 0.0
2.828571 1.618750 0.0
2.871429 1.618750 0.0
2.914286 1.618750 0.0
2.957143 1.618750 0.0
3.000000 1.618750 0.0
1.500000 1.662500 0.0
1.542857 1.662500 0.0
1.585714 1.662500 0.0
1.628571 1.662500 0.0
1.671429 1.662500 0.0
1.714286 1.662500 0.0
1.757143 1.662500 0.0
1.800000 1.662500 0.0
1.842857 1.662500 0.0
1.885714 1.662500 0.0
1.928571 1.662500 0.0
1.971429 1.662500 0.0
2.014286 1.662500 0.0
2.057143 1.662500 0.0
2.100000 1.662500 0.0
2.142857 1.662500 0.0
2.185714 1.662500 0.0
2.228571 1.662500 0.0
2.271429 1.662500 0.0
2.314286 1.662500 0.0
2.357143 1.662500 0.0
2.400000 1.662500 0.0
2.442857 1.662500 0.0
2.485714 1.662500 0.0
2.528571 1.662500 0.0
2.571429 1.662500 0.0
2.614286 1.662500 0.0
2.657143 1.662500 0.0
2.700000 1.662500 0.0
2.742857 1.662500 0.0
2.785714 1.662500 0.0
2.828571 1.662500 0.0
2.871429 1.662500 0.0
2.914286 1.662500 0.0
2.957143 1.662500 0.0
3.000000 1.662500 0.0
1.500000 1.706250 0.0
1.542857 1.706250 0.0
1.585714 1.706250 0.0
1.628571 1.706250 0.0
1.671429 1.706250 0.0
1.714286 1.706250 0.0
1.757143 1.706250 0.0
1.800000 1.706250 0.0
1.842857 1.706250 0.0
1.885714 1.706250 0.0
1.928571 1.706250 0.0
1.971429 1.706250 0.0
2.014286 1.706250 0.0
2.057143 1.706250 0.0
2.100000 1.706250 0.0
2.142857 1.706250 0.0
2.185714 1.706250 0.0
2.228571 1.706250 0.0
2.271429 1.706250 0.0
2.314286 1.706250 0.0
2.357143 1.706250 0.0
2.400000 1.706250 0.0
2.442857 1.706250 0.0
2.485714 1.706250 0.0
2.528571 1.706250 0.0
2.571429 1.706250 0.0
2.614286 1.706250 0.0
2.657143 1.706250 0.0
2.700000 1.706250 0.0
2.742857 1.706250 0.0
2.785714 1.706250 0.0
2.828571 1.706250 0.0
2.871429 1.706250 0.0
2.914286 1.706250 0.0
2.957143 1.706250 0.0
3.000000 1.706250 0.0
1.500000 1.750000 0.0
1.542857 1.750000 0.0
1.585714 1.750000 0.0
1.628571 1.750000 0.0
1.671429 1.750000 0.0
1.714286 1.750000 0.0
1.757143 1.750000 0.0
1.800000 1.750000 0.0
1.842857 1.750000 0.0
1.885714 1.750000 0.0
1.928571 1.750000 0.0
1.971429 1.750000 0.0
2.014286 1.750000 0.0
2.057143 1.750000 0.0
2.100000 1.750000 0.0
2.142857 1.750000 0.0
2.185714 1.750000 0.0
2.228571 1.750000 0.0
2.271429 1.750000 0.0
2.314286 1.750000 0.0
2.357143 1.750000 0.0
2.400000 1.750000 0.0
2.442857 1.750000 0.0
2.485714 1.750000 0.0
2.528571 1.750000 0.0
2.571429 1.750000 0.0
2.614286 1.750000 0.0
2.657143 1.750000 0.0
2.700000 1.750000 0.0
2.742857 1.750000 0.0
2.785714 1.750000 0.0
2.828571 1.750000 0.0
2.871429 1.750000 0.0
2.914286 1.750000 0.0
2.957143 1.750000 0.0
3.000000 1.750000 0.0
</DataArray></Points>
<PointData>
<DataArray NumberOfComponents="1" format="ascii" type ="Float32" Name="phi">
0.158953
0.161493
0.167293
0.174802
0.183999
0.195588
0.210122
0.226977
0.245464
0.265577
0.287488
0.311360
0.336991
0.363972
0.392193
0.421653
0.452168
0.483499
0.515559
0.548416
0.582164
0.616689
0.651726
0.687120
0.722853
0.759038
0.795806
0.833024
0.870461
0.908040
0.945811
0.983962
1.022549
1.061367
1.100262
1.115245
0.115309
0.118001
0.124112
0.131925
0.141545
0.154012
0.169631
0.187327
0.206608
0.227703
0.250880
0.276093
0.302976
0.331131
0.360350
0.390684
0.422187
0.454658
0.487840
0.521636
0.556091
0.591293
0.627140
0.663389
0.699901
0.736675
0.773858
0.811581
0.849680
0.887936
0.926294
0.964839
1.003759
1.043055
1.082520
1.102268
0.071622
0.074505
0.080980
0.089112
0.099224
0.112758
0.129551
0.148042
0.168203
0.190575
0.215292
0.241861
0.269883
0.299195
0.329601
0.360992
0.393438
0.426934
0.461224
0.496057
0.531354
0.567175
0.603633
0.640633
0.677937
0.715436
0.753155
0.791272
0.829881
0.868783
0.907794
0.946887
0.986172
1.025813
1.065749
1.085758
0.028861
0.031504
0.037897
0.046365
0.057056
0.071873
0.089905
0.109121
0.130397
0.154459
0.180833
0.208699
0.237863
0.268320
0.299987
0.332644
0.366165
0.400580
0.435816
0.471625
0.507829
0.544386
0.581397
0.618980
0.657005
0.695257
0.733663
0.772278
0.811286
0.850708
0.890340
0.930054
0.969849
1.009846
1.050126
1.070332
-0.013242
-0.010826
-0.004497
0.004386
0.016031
0.032009
0.050522
0.070430
0.093556
0.119659
0.147514
0.176624
0.207057
0.238806
0.271776
0.305714
0.340381
0.375715
0.411752
0.448403
0.485473
0.522854
0.560538
0.598652
0.637268
0.676222
0.715354
0.754623
0.794113
0.833957
0.874100
0.914384
0.954749
0.995214
1.035851
1.056222
-0.056267
-0.053621
-0.046831
-0.037157
-0.023960
-0.006732
0.012624
0.033567
0.058348
0.086209
0.115235
0.145745
0.177741
0.210959
0.245209
0.280304
0.316041
0.352312
0.389135
0.426528
0.464390
0.502590
0.541063
0.579829
0.618995
0.658554
0.698357
0.738314
0.778419
0.818748
0.859332
0.900081
0.940932
0.981874
1.022925
1.043481
-0.099863
-0.096994
-0.089654
-0.078791
-0.063832
-0.045088
-0.023928
-0.001047
0.025076
0.053720
0.084053
0.116610
0.150289
0.184894
0.220302
0.256434
0.293159
0.330368
0.368032
0.406186
0.444805
0.483789
0.523063
0.562593
0.602417
0.642566
0.682963
0.723525
0.764229
0.805092
0.846117
0.887266
0.928506
0.969832
1.011246
1.031975
-0.143415
-0.140276
-0.132196
-0.119939
-0.103264
-0.083003
-0.060052
-0.034550
-0.006299
0.023516
0.055427
0.089706
0.124752
0.160556
0.197043
0.234162
0.271850
0.310014
0.348591
0.387589
0.427001
0.466767
0.506822
0.547121
0.587654
0.628412
0.669348
0.710418
0.751609
0.792921
0.834341
0.875843
0.917414
0.959049
1.000750
1.021618
-0.186939
-0.183452
-0.174356
-0.160455
-0.141966
-0.119888
-0.094732
-0.066625
-0.036080
-0.003870
0.029638
0.064704
0.101014
0.137984
0.175566
0.213713
0.252395
0.291552
0.331103
0.371023
0.411286
0.451840
0.492628
0.533602
0.574742
0.616027
0.657428
0.698920
0.740497
0.782157
0.823892
0.865687
0.907531
0.949423
0.991362
1.012344
-0.230417
-0.226456
-0.215994
-0.200135
-0.179523
-0.155095
-0.127292
-0.096595
-0.063726
-0.029168
0.006058
0.041996
0.079306
0.117454
0.156196
0.195475
0.235244
0.275450
0.315994
0.356815
0.397869
0.439108
0.480492
0.521990
0.563590
0.605279
0.647043
0.688866
0.730746
0.772682
0.814671
0.856705
0.898775
0.940879
0.983020
1.004099
-0.273805
-0.269161
-0.256878
-0.238587
-0.215273
-0.187879
-0.157093
-0.123707
-0.088450
-0.051885
-0.014541
0.022247
0.059845
0.099382
0.139496
0.180051
0.220952
0.262128
0.303502
0.345023
0.386659
0.428390
0.470199
0.512073
0.554009
0.596001
0.638040
0.680121
0.722240
0.764400
0.806599
0.848831
0.891091
0.933377
0.975690
0.996854
-0.317002
-0.311343
-0.296548
-0.275051
-0.248228
-0.217291
-0.183307
-0.147262
-0.109872
-0.071563
-0.032535
0.005221
0.043776
0.084909
0.126327
0.167931
0.209659
0.251477
0.293367
0.335318
0.377323
0.419379
0.461481
0.503626
0.545812
0.588038
0.630297
0.672586
0.714905
0.757253
0.799630
0.842034
0.884458
0.926902
0.969367
0.990605
-0.359754
-0.352508
-0.334032
-0.308198
-0.277083
-0.242409
-0.205518
-0.167324
-0.128366
-0.088966
-0.049313
-0.009389
0.032105
0.074527
0.116535
0.158605
0.200711
0.242853
0.285033
0.327251
0.369508
0.411803
0.454132
0.496493
0.538887
0.581311
0.623761
0.666233
0.708726
0.751242
0.793780
0.836337
0.878909
0.921496
0.964097
0.985401
-0.401271
-0.391447
-0.367558
-0.336402
-0.300944
-0.263137
-0.224124
-0.184443
-0.144322
-0.103879
-0.063195
-0.020499
0.023536
0.066360
0.108604
0.150921
0.193277
0.235673
0.278105
0.320571
0.363068
0.405592
0.448141
0.490713
0.533306
0.575919
0.618547
0.661190
0.703846
0.746518
0.789202
0.831898
0.874603
0.917316
0.960012
0.981350
-0.439206
-0.425517
-0.394498
-0.357815
-0.318519
-0.278011
-0.236877
-0.195359
-0.153579
-0.111576
-0.069375
-0.025975
0.017482
0.059960
0.102536
0.145142
0.187772
0.230425
0.273101
0.315794
0.358502
0.401223
0.443956
0.486701
0.529455
0.572217
0.614985
0.657758
0.700539
0.743326
0.786118
0.828914
0.871714
0.914501
0.956403
0.976918
-0.460985
-0.443951
-0.407060
-0.366380
-0.324530
-0.282246
-0.239707
-0.197010
-0.154238
-0.111454
-0.068677
-0.026459
0.014711
0.056465
0.099280
0.142079
0.184885
0.227697
0.270515
0.313337
0.356162
0.398989
0.441819
0.484653
0.527489
0.570326
0.613165
0.656005
0.698846
0.741689
0.784534
0.827380
0.870219
0.912174
0.946380
0.960046
-0.449478
-0.434261
-0.400246
-0.361246
-0.320147
-0.278167
-0.235809
-0.193297
-0.150694
-0.108043
-0.065347
-0.023771
0.016230
0.057374
0.100068
0.142753
0.185461
0.228193
0.270946
0.313715
0.356494
0.399284
0.442083
0.484890
0.527702
0.570519
0.613339
0.656163
0.698992
0.741823
0.784656
0.827498
0.869317
0.903060
0.920327
0.924244
-0.414034
-0.403435
-0.377814
-0.345151
-0.308203
-0.268945
-0.228445
-0.187225
-0.145521
-0.103446
-0.061042
-0.018637
0.022539
0.063675
0.105866
0.148113
0.190425
0.232803
0.275238
0.317720
0.360238
0.402792
0.445381
0.488000
0.530640
0.573298
0.615972
0.658663
0.701374
0.744097
0.786827
0.828203
0.860818
0.876988
0.880641
0.880729
-0.373354
-0.365401
-0.345618
-0.318946
-0.286967
-0.251588
-0.214106
-0.175222
-0.135381
-0.094885
-0.053930
-0.010999
0.031881
0.073231
0.114929
0.156710
0.198581
0.240540
0.282581
0.324690
0.366858
0.409085
0.451370
0.493707
0.536083
0.578490
0.620930
0.663408
0.705918
0.748518
0.789089
0.819675
0.833971
0.836962
0.836995
0.836979
-0.331237
-0.324730
-0.308617
-0.286587
-0.259033
-0.227273
-0.192783
-0.156398
-0.118629
-0.079894
-0.040529
0.001173
0.043537
0.084576
0.125784
0.167122
0.208576
0.250140
0.291804
0.333553
0.375380
0.417284
0.459264
0.501308
0.543403
0.585543
0.627728
0.669963
0.712346
0.751693
0.779490
0.791240
0.793298
0.793284
0.793246
0.793229
-0.288609
-0.282993
-0.269172
-0.250557
-0.226922
-0.198618
-0.167050
-0.133224
-0.097678
-0.060757
-0.021920
0.018351
0.058429
0.098420
0.138813
0.179496
0.220397
0.261473
0.302697
0.344039
0.385487
0.427040
0.468691
0.510422
0.552219
0.594075
0.636007
0.678054
0.715505
0.739659
0.748537
0.749632
0.749584
0.749535
0.749496
0.760417
</DataArray>
<DataArray NumberOfComponents="1" format="ascii" type ="Float32" Name="u">
0.000219
-0.001636
-0.003416
-0.005030
-0.006417
-0.007538
-0.008370
-0.008931
-0.009249
-0.009366
-0.009321
-0.009151
-0.008890
-0.008565
-0.008201
-0.007818
-0.007433
-0.007057
-0.006700
-0.006365
-0.006057
-0.005775
-0.005521
-0.005293
-0.005090
-0.004911
-0.004755
-0.004620
-0.004505
-0.004409
-0.004331
-0.004270
-0.004226
-0.004197
-0.004182
-0.004182
0.000284
-0.001983
-0.004106
-0.005977
-0.007568
-0.008848
-0.009748
-0.010299
-0.010535
-0.010526
-0.010340
-0.010026
-0.009626
-0.009171
-0.008689
-0.008201
-0.007725
-0.007273
-0.006851
-0.006464
-0.006112
-0.005795
-0.005513
-0.005262
-0.005040
-0.004847
-0.004679
-0.004534
-0.004412
-0.004311
-0.004229
-0.004167
-0.004124
-0.004099
-0.004091
-0.004091
0.000236
-0.002354
-0.004656
-0.006648
-0.008473
-0.010058
-0.011120
-0.011736
-0.011916
-0.011773
-0.011423
-0.010942
-0.010382
-0.009778
-0.009163
-0.008560
-0.007986
-0.007453
-0.006966
-0.006526
-0.006132
-0.005782
-0.005473
-0.005201
-0.004964
-0.004757
-0.004579
-0.004427
-0.004298
-0.004193
-0.004108
-0.004044
-0.004000
-0.003973
-0.003961
-0.003961
-0.000032
-0.002320
-0.004347
-0.006291
-0.008527
-0.010672
-0.012051
-0.012964
-0.013253
-0.013036
-0.012532
-0.011875
-0.011138
-0.010369
-0.009606
-0.008878
-0.008201
-0.007586
-0.007034
-0.006543
-0.006111
-0.005731
-0.005398
-0.005108
-0.004857
-0.004640
-0.004453
-0.004295
-0.004162
-0.004053
-0.003966
-0.003900
-0.003854
-0.003825
-0.003810
-0.003810
-0.000327
-0.001559
-0.002964
-0.004712
-0.007048
-0.009544
-0.011698
-0.013399
-0.014237
-0.014164
-0.013603
-0.012793
-0.011871
-0.010921
-0.009997
-0.009135
-0.008353
-0.007657
-0.007044
-0.006507
-0.006040
-0.005635
-0.005283
-0.004979
-0.004717
-0.004493
-0.004301
-0.004138
-0.004003
-0.003892
-0.003803
-0.003736
-0.003688
-0.003657
-0.003642
-0.003642
-0.000359
-0.000746
-0.001547
-0.002771
-0.004246
-0.006302
-0.009211
-0.011968
-0.014230
-0.014839
-0.014512
-0.013645
-0.012550
-0.011406
-0.010310
-0.009310
-0.008424
-0.007652
-0.006984
-0.006409
-0.005914
-0.005489
-0.005124
-0.004811
-0.004543
-0.004314
-0.004119
-0.003956
-0.003819
-0.003708
-0.003619
-0.003551
-0.003502
-0.003472
-0.003456
-0.003456
-0.000243
-0.000354
-0.000720
-0.001333
-0.001962
-0.003156
-0.005394
-0.008406
-0.012010
-0.014416
-0.014997
-0.014316
-0.013112
-0.011781
-0.010512
-0.009378
-0.008396
-0.007557
-0.006844
-0.006239
-0.005726
-0.005289
-0.004917
-0.004600
-0.004330
-0.004101
-0.003908
-0.003746
-0.003611
-0.003501
-0.003413
-0.003346
-0.003298
-0.003268
-0.003252
-0.003252
-0.000159
-0.000166
-0.000286
-0.000550
-0.000893
-0.001464
-0.002571
-0.004691
-0.007767
-0.011927
-0.014567
-0.014535
-0.013416
-0.011977
-0.010564
-0.009312
-0.008248
-0.007358
-0.006614
-0.005992
-0.005470
-0.005030
-0.004659
-0.004345
-0.004080
-0.003855
-0.003666
-0.003508
-0.003378
-0.003271
-0.003186
-0.003122
-0.003075
-0.003046
-0.003031
-0.003031
-0.000104
-0.000077
-0.000091
-0.000180
-0.000328
-0.000591
-0.001218
-0.002374
-0.004248
-0.007959
-0.012484
-0.013800
-0.013222
-0.011882
-0.010412
-0.009083
-0.007963
-0.007041
-0.006284
-0.005660
-0.005142
-0.004710
-0.004349
-0.004045
-0.003789
-0.003574
-0.003394
-0.003244
-0.003120
-0.003019
-0.002939
-0.002878
-0.002834
-0.002806
-0.002792
-0.002792
-0.000067
-0.000033
-0.000011
-0.000021
-0.000063
-0.000166
-0.000480
-0.001135
-0.002408
-0.004709
-0.008706
-0.012054
-0.012359
-0.011368
-0.009987
-0.008653
-0.007518
-0.006593
-0.005845
-0.005237
-0.004739
-0.004327
-0.003984
-0.003698
-0.003459
-0.003259
-0.003092
-0.002953
-0.002839
-0.002746
-0.002673
-0.002617
-0.002576
-0.002550
-0.002537
-0.002537
-0.000041
-0.000012
0.000018
0.000038
0.000044
0.000023
-0.000110
-0.000455
-0.001221
-0.002648
-0.005020
-0.009617
-0.010762
-0.010333
-0.009213
-0.007976
-0.006885
-0.005997
-0.005288
-0.004718
-0.004256
-0.003877
-0.003565
-0.003305
-0.003090
-0.002910
-0.002761
-0.002637
-0.002535
-0.002453
-0.002388
-0.002338
-0.002302
-0.002279
-0.002268
-0.002268
-0.000022
-0.000000
0.000025
0.000050
0.000075
0.000093
0.000064
-0.000078
-0.000470
-0.001300
-0.002875
-0.006550
-0.008577
-0.008831
-0.008065
-0.007011
-0.006037
-0.005239
-0.004605
-0.004100
-0.003694
-0.003363
-0.003092
-0.002868
-0.002683
-0.002529
-0.002402
-0.002298
-0.002212
-0.002142
-0.002087
-0.002045
-0.002014
-0.001995
-0.001984
-0.001984
-0.000006
0.000005
0.000021
0.000040
0.000066
0.000097
0.000119
0.000100
-0.000036
-0.000421
-0.001308
-0.003193
-0.006480
-0.007104
-0.006569
-0.005737
-0.004955
-0.004309
-0.003793
-0.003382
-0.003053
-0.002785
-0.002567
-0.002389
-0.002242
-0.002120
-0.002020
-0.001938
-0.001870
-0.001815
-0.001772
-0.001739
-0.001714
-0.001698
-0.001690
-0.001690
0.000006
0.000006
0.000010
0.000018
0.000031
0.000054
0.000084
0.000117
0.000138
0.000118
-0.000041
-0.000759
-0.004564
-0.005070
-0.004677
-0.004136
-0.003633
-0.003206
-0.002854
-0.002568
-0.002337
-0.002150
-0.001997
-0.001872
-0.001770
-0.001686
-0.001617
-0.001560
-0.001514
-0.001476
-0.001446
-0.001422
-0.001405
-0.001393
-0.001387
-0.001387
0.000015
0.000004
-0.000004
-0.000011
-0.000018
-0.000022
-0.000026
-0.000027
-0.000021
0.000004
0.000030
-0.000204
-0.002346
-0.002477
-0.002342
-0.002222
-0.002090
-0.001944
-0.001799
-0.001669
-0.001557
-0.001465
-0.001388
-0.001325
-0.001274
-0.001232
-0.001198
-0.001170
-0.001147
-0.001127
-0.001112
-0.001099
-0.001089
-0.001082
-0.001077
-0.001077
0.000021
0.000003
-0.000016
-0.000038
-0.000065
-0.000102
-0.000156
-0.000238
-0.000360
-0.000515
-0.000643
-0.000559
-0.000047
0.000348
0.000192
-0.000138
-0.000407
-0.000572
-0.000661
-0.000706
-0.000730
-0.000743
-0.000751
-0.000757
-0.000762
-0.000766
-0.000769
-0.000771
-0.000773
-0.000774
-0.000773
-0.000772
-0.000769
-0.000767
-0.000764
-0.000764
0.000028
0.000003
-0.000023
-0.000054
-0.000094
-0.000150
-0.000234
-0.000363
-0.000555
-0.000810
-0.001018
-0.000656
0.002290
0.002946
0.002530
0.001857
0.001262
0.000819
0.000505