<VTKFile type="StructuredGrid" version="0.1" byte_order="LittleEndian">
<StructuredGrid WholeExtent="1 71 1 81 0 0">
<Piece Extent="36 71 41 61 0 0">
<PointData></PointData>
<CellData></CellData>
<Points>
<DataArray NumberOfComponents="3" format="ascii" type ="Float32" Name="mesh">
1.500000 1.750000 0.0
1.542857 1.750000 0.0
1.585714 1.750000 0.0
1.628571 1.750000 0.0
1.671429 1.750000 0.0
1.714286 1.750000 0.0
1.757143 1.750000 0.0
1.800000 1.750000 0.0
1.842857 1.750000 0.0
1.885714 1.750000 0.0
1.928571 1.750000 0.0
1.971429 1.750000 0.0
2.014286 1.750000 0.0
2.057143 1.750000 0.0
2.100000 1.750000 0.0
2.142857 1.750000 0.0
2.185714 1.750000 0.0
2.228571 1.750000 0.0
2.271429 1.750000 0.0
2.314286 1.750000 0.0
2.357143 1.750000 0.0
2.400000 1.750000 0.0
2.442857 1.750000 0.0
2.485714 1.750000 0.0
2.528571 1.750000 0.0
2.571429 1.750000 0.0
2.614286 1.750000 0.0
2.657143 1.750000 0.0
2.700000 1.750000 0.0
2.742857 1.750000 0.0
2.785714 1.750000 0.0
2.828571 1.750000 0.0
2.871429 1.750000 0.0
2.914286 1.750000 0.0
2.957143 1.750000 0.0
3.000000 1.750000 0.0
1.500000 1.793750 0.0
1.542857 1.793750 0.0
1.585714 1.793750 0.0
1.628571 1.793750 0.0
1.671429 1.793750 0.0
1.714286 1.793750 0.0
1.757143 1.793750 0.0
1.800000 1.793750 0.0
1.842857 1.793750 0.0
1.885714 1.793750 0.0
1.928571 1.793750 0.0
1.971429 1.793750 0.0
2.014286 1.793750 0.0
2.057143 1.793750 0.0
2.100000 1.793750 0.0
2.142857 1.793750 0.0
2.185714 1.793750 0.0
2.228571 1.793750 0.0
2.271429 1.793750 0.0
2.314286 1.793750 0.0
2.357143 1.793750 0.0
2.400000 1.793750 0.0
2.442857 1.793750 0.0
2.485714 1.793750 0.0
2.528571 1.793750 0.0
2.571429 1.793750 0.0
2.614286 1.793750 0.0
2.657143 1.793750 0.0
2.700000 1.793750 0.0
2.742857 1.793750 0.0
2.785714 1.793750 0.0
2.828571 1.793750 0.0
2.871429 1.793750 0.0
2.914286 1.793750 0.0
2.957143 1.793750 0.0
3.000000 1.793750 0.0
1.500000 1.837500 0.0
1.542857 1.837500 0.0
1.585714 1.837500 0.0
1.628571 1.837500 0.0
1.671429 1.837500 0.0
1.714286 1.837500 0.0
1.757143 1.837500 0.0
1.800000 1.837500 0.0
1.842857 1.837500 0.0
1.885714 1.837500 0.0
1.928571 1.837500 0.0
1.971429 1.837500 0.0
2.014286 1.837500 0.0
2.057143 1.837500 0.0
2.100000 1.837500 0.0
2.142857 1.837500 0.0
2.185714 1.837500 0.0
2.228571 1.837500 0.0
2.271429 1.837500 0.0
2.314286 1.837500 0.0
2.357143 1.837500 0.0
2.400000 1.837500 0.0
2.442857 1.837500 0.0
2.485714 1.837500 0.0
2.528571 1.837500 0.0
2.571429 1.837500 0.0
2.614286 1.837500 0.0
2.657143 1.837500 0.0
2.700000 1.837500 0.0
2.742857 1.837500 0.0
2.785714 1.837500 0.0
2.828571 1.837500 0.0
2.871429 1.837500 0.0
2.914286 1.837500 0.0
2.957143 1.837500 0.0
3.000000 1.837500 0.0
1.500000 1.881250 0.0
1.542857 1.881250 0.0
1.585714 1.881250 0.0
1.628571 1.881250 0.0
1.671429 1.881250 0.0
1.714286 1.881250 0.0
1.757143 1.881250 0.0
1.800000 1.881250 0.0
1.842857 1.881250 0.0
1.885714 1.881250 0.0
1.928571 1.881250 0.0
1.971429 1.881250 0.0
2.014286 1.881250 0.0
2.057143 1.881250 0.0
2.100000 1.881250 0.0
2.142857 1.881250 0.0
2.185714 1.881250 0.0
2.228571 1.881250 0.0
2.271429 1.881250 0.0
2.314286 1.881250 0.0
2.357143 1.881250 0.0
2.400000 1.881250 0.0
2.442857 1.881250 0.0
2.485714 1.881250 0.0
2.528571 1.881250 0.0
2.571429 1.881250 0.0
2.614286 1.881250 0.0
2.657143 1.881250 0.0
2.700000 1.881250 0.0
2.742857 1.881250 0.0
2.785714 1.881250 0.0
2.828571 1.881250 0.0
2.871429 1.881250 0.0
2.914286 1.881250 0.0
2.957143 1.881250 0.0
3.000000 1.881250 0.0
1.500000 1.925000 0.0
1.542857 1.925000 0.0
1.585714 1.925000 0.0
1.628571 1.925000 0.0
1.671429 1.925000 0.0
1.714286 1.925000 0.0
1.757143 1.925000 0.0
1.800000 1.925000 0.0
1.842857 1.925000 0.0
1.885714 1.925000 0.0
1.928571 1.925000 0.0
1.971429 1.925000 0.0
2.014286 1.925000 0.0
2.057143 1.925000 0.0
2.100000 1.925000 0.0
2.142857 1.925000 0.0
2.185714 1.925000 0.0
2.228571 1.925000 0.0
2.271429 1.925000 0.0
2.314286 1.925000 0.0
2.357143 1.925000 0.0
2.400000 1.925000 0.0
2.442857 1.925000 0.0
2.485714 1.925000 0.0
2.528571 1.925000 0.0
2.571429 1.925000 0.0
2.614286 1.925000 0.0
2.657143 1.925000 0.0
2.700000 1.925000 0.0
2.742857 1.925000 0.0
2.785714 1.925000 0.0
2.828571 1.925000 0.0
2.871429 1.925000 0.0
2.914286 1.925000 0.0
2.957143 1.925000 0.0
3.000000 1.925000 0.0
1.500000 1.968750 0.0
1.542857 1.968750 0.0
1.585714 1.968750 0.0
1.628571 1.968750 0.0
1.671429 1.968750 0.0
1.714286 1.968750 0.0
1.757143 1.968750 0.0
1.800000 1.968750 0.0
1.842857 1.968750 0.0
1.885714 1.968750 0.0
1.928571 1.968750 0.0
1.971429 1.968750 0.0
2.014286 1.968750 0.0
2.057143 1.968750 0.0
2.100000 1.968750 0.0
2.142857 1.968750 0.0
2.185714 1.968750 0.0
2.228571 1.968750 0.0
2.271429 1.968750 0.0
2.314286 1.968750 0.0
2.357143 1.968750 0.0
2.400000 1.968750 0.0
2.442857 1.968750 0.0
2.485714 1.968750 0.0
2.528571 1.968750 0.0
2.571429 1.968750 0.0
2.614286 1.968750 0.0
2.657143 1.968750 0.0
2.700000 1.968750 0.0
2.742857 1.968750 0.0
2.785714 1.968750 0.0
2.828571 1.968750 0.0
2.871429 1.968750 0.0
2.914286 1.968750 0.0
2.957143 1.968750 0.0
3.000000 1.968750 0.0
1.500000 2.012500 0.0
1.542857 2.012500 0.0
1.585714 2.012500 0.0
1.628571 2.012500 0.0
1.671429 2.012500 0.0
1.714286 2.012500 0.0
1.757143 2.012500 0.0
1.800000 2.012500 0.0
1.842857 2.012500 0.0
1.885714 2.012500 0.0
1.928571 2.012500 0.0
1.971429 2.012500 0.0
2.014286 2.012500 0.0
2.057143 2.012500 0.0
2.100000 2.012500 0.0
2.142857 2.012500 0.0
2.185714 2.012500 0.0
2.228571 2.012500 0.0
2.271429 2.012500 0.0
2.314286 2.012500 0.0
2.357143 2.012500 0.0
2.400000 2.012500 0.0
2.442857 2.012500 0.0
2.485714 2.012500 0.0
2.528571 2.012500 0.0
2.571429 2.012500 0.0
2.614286 2.012500 0.0
2.657143 2.012500 0.0
2.700000 2.012500 0.0
2.742857 2.012500 0.0
2.785714 2.012500 0.0
2.828571 2.012500 0.0
2.871429 2.012500 0.0
2.914286 2.012500 0.0
2.957143 2.012500 0.0
3.000000 2.012500 0.0
1.500000 2.056250 0.0
1.542857 2.056250 0.0
1.585714 2.056250 0.0
1.628571 2.056250 0.0
1.671429 2.056250 0.0
1.714286 2.056250 0.0
1.757143 2.056250 0.0
1.800000 2.056250 0.0
1.842857 2.056250 0.0
1.885714 2.056250 0.0
1.928571 2.056250 0.0
1.971429 2.056250 0.0
2.014286 2.056250 0.0
2.057143 2.056250 0.0
2.100000 2.056250 0.0
2.142857 2.056250 0.0
2.185714 2.056250 0.0
2.228571 2.056250 0.0
2.271429 2.056250 0.0
2.314286 2.056250 0.0
2.357143 2.056250 0.0
2.400000 2.056250 0.0
2.442857 2.056250 0.0
2.485714 2.056250 0.0
2.528571 2.056250 0.0
2.571429 2.056250 0.0
2.614286 2.056250 0.0
2.657143 2.056250 0.0
2.700000 2.056250 0.0
2.742857 2.056250 0.0
2.785714 2.056250 0.0
2.828571 2.056250 0.0
2.871429 2.056250 0.0
2.914286 2.056250 0.0
2.957143 2.056250 0.0
3.000000 2.056250 0.0
1.500000 2.100000 0.0
1.542857 2.100000 0.0
1.585714 2.100000 0.0
1.628571 2.100000 0.0
1.671429 2.100000 0.0
1.714286 2.100000 0.0
1.757143 2.100000 0.0
1.800000 2.100000 0.0
1.842857 2.100000 0.0
1.885714 2.100000 0.0
1.928571 2.100000 0.0
1.971429 2.100000 0.0
2.014286 2.100000 0.0
2.057143 2.100000 0.0
2.100000 2.100000 0.0
2.142857 2.100000 0.0
2.185714 2.100000 0.0
2.228571 2.100000 0.0
2.271429 2.100000 0.0
2.314286 2.100000 0.0
2.357143 2.100000 0.0
2.400000 2.100000 0.0
2.442857 2.100000 0.0
2.485714 2.100000 0.0
2.528571 2.100000 0.0
2.571429 2.100000 0.0
2.614286 2.100000 0.0
2.657143 2.100000 0.0
2.700000 2.100000 0.0
2.742857 2.100000 0.0
2.785714 2.100000 0.0
2.828571 2.100000 0.0
2.871429 2.100000 0.0
2.914286 2.100000 0.0
2.957143 2.100000 0.0
3.000000 2.100000 0.0
1.500000 2.143750 0.0
1.542857 2.143750 0.0
1.585714 2.143750 0.0
1.628571 2.143750 0.0
1.671429 2.143750 0.0
1.714286 2.143750 0.0
1.757143 2.143750 0.0
1.800000 2.143750 0.0
1.842857 2.143750 0.0
1.885714 2.143750 0.0
1.928571 2.143750 0.0
1.971429 2.143750 0.0
2.014286 2.143750 0.0
2.057143 2.143750 0.0
2.100000 2.143750 0.0
2.142857 2.143750 0.0
2.185714 2.143750 0.0
2.228571 2.143750 0.0
2.271429 2.143750 0.0
2.314286 2.143750 0.0
2.357143 2.143750 0.0
2.400000 2.143750 0.0
2.442857 2.143750 0.0
2.485714 2.143750 0.0
2.528571 2.143750 0.0
2.571429 2.143750 0.0
2.614286 2.143750 0.0
2.657143 2.143750 0.0
2.700000 2.143750 0.0
2.742857 2.143750 0.0
2.785714 2.143750 0.0
2.828571 2.143750 0.0
2.871429 2.143750 0.0
2.914286 2.143750 0.0
2.957143 2.143750 0.0
3.000000 2.143750 0.0
1.500000 2.187500 0.0
1.542857 2.187500 0.0
1.585714 2.187500 0.0
1.628571 2.187500 0.0
1.671429 2.187500 0.0
1.714286 2.187500 0.0
1.757143 2.187500 0.0
1.800000 2.187500 0.0
1.842857 2.187500 0.0
1.885714 2.187500 0.0
1.928571 2.187500 0.0
1.971429 2.187500 0.0
2.014286 2.187500 0.0
2.057143 2.187500 0.0
2.100000 2.187500 0.0
2.142857 2.187500 0.0
2.185714 2.187500 0.0
2.228571 2.187500 0.0
2.271429 2.187500 0.0
2.314286 2.187500 0.0
2.357143 2.187500 0.0
2.400000 2.187500 0.0
2.442857 2.187500 0.0
2.485714 2.187500 0.0
2.528571 2.187500 0.0
2.571429 2.187500 0.0
2.614286 2.187500 0.0
2.657143 2.187500 0.0
2.700000 2.187500 0.0
2.742857 2.187500 0.0
2.785714 2.187500 0.0
2.828571 2.187500 0.0
2.871429 2.187500 0.0
2.914286 2.187500 0.0
2.957143 2.187500 0.0
3.000000 2.187500 0.0
1.500000 2.231250 0.0
1.542857 2.231250 0.0
1.585714 2.231250 0.0
1.628571 2.231250 0.0
1.671429 2.231250 0.0
1.714286 2.231250 0.0
1.757143 2.231250 0.0
1.800000 2.231250 0.0
1.842857 2.231250 0.0
1.885714 2.231250 0.0
1.928571 2.231250 0.0
1.971429 2.231250 0.0
2.014286 2.231250 0.0
2.057143 2.231250 0.0
2.100000 2.231250 0.0
2.142857 2.231250 0.0
2.185714 2.231250 0.0
2.228571 2.231250 0.0
2.271429 2.231250 0.0
2.314286 2.231250 0.0
2.357143 2.231250 0.0
2.400000 2.231250 0.0
2.442857 2.231250 0.0
2.485714 2.231250 0.0
2.528571 2.231250 0.0
2.571429 2.231250 0.0
2.614286 2.231250 0.0
2.657143 2.231250 0.0
2.700000 2.231250 0.0
2.742857 2.231250 0.0
2.785714 2.231250 0.0
2.828571 2.231250 0.0
2.871429 2.231250 0.0
2.914286 2.231250 0.0
2.957143 2.231250 0.0
3.000000 2.231250 0.0
1.500000 2.275000 0.0
1.542857 2.275000 0.0
1.585714 2.275000 0.0
1.628571 2.275000 0.0
1.671429 2.275000 0.0
1.714286 2.275000 0.0
1.757143 2.275000 0.0
1.800000 2.275000 0.0
1.842857 2.275000 0.0
1.885714 2.275000 0.0
1.928571 2.275000 0.0
1.971429 2.275000 0.0
2.014286 2.275000 0.0
2.057143 2.275000 0.0
2.100000 2.275000 0.0
2.142857 2.275000 0.0
2.185714 2.275000 0.0
2.228571 2.275000 0.0
2.271429 2.275000 0.0
2.314286 2.275000 0.0
2.357143 2.275000 0.0
2.400000 2.275000 0.0
2.442857 2.275000 0.0
2.485714 2.275000 0.0
2.528571 2.275000 0.0
2.571429 2.275000 0.0
2.614286 2.275000 0.0
2.657143 2.275000 0.0
2.700000 2.275000 0.0
2.742857 2.275000 0.0
2.785714 2.275000 0.0
2.828571 2.275000 0.0
2.871429 2.275000 0.0
2.914286 2.275000 0.0
2.957143 2.275000 0.0
3.000000 2.275000 0.0
1.500000 2.318750 0.0
1.542857 2.318750 0.0
1.585714 2.318750 0.0
1.628571 2.318750 0.0
1.671429 2.318750 0.0
1.714286 2.318750 0.0
1.757143 2.318750 0.0
1.800000 2.318750 0.0
1.842857 2.318750 0.0
1.885714 2.318750 0.0
1.928571 2.318750 0.0
1.971429 2.318750 0.0
2.014286 2.318750 0.0
2.057143 2.318750 0.0
2.100000 2.318750 0.0
2.142857 2.318750 0.0
2.185714 2.318750 0.0
2.228571 2.318750 0.0
2.271429 2.318750 0.0
2.314286 2.318750 0.0
2.357143 2.318750 0.0
2.400000 2.318750 0.0
2.442857 2.318750 0.0
2.485714 2.318750 0.0
2.528571 2.318750 0.0
2.571429 2.318750 0.0
2.614286 2.318750 0.0
2.657143 2.318750 0.0
2.700000 2.318750 0.0
2.742857 2.318750 0.0
2.785714 2.318750 0.0
2.828571 2.318750 0.0
2.871429 2.318750 0.0
2.914286 2.318750 0.0
2.957143 2.318750 0.0
3.000000 2.318750 0.0
1.500000 2.362500 0.0
1.542857 2.362500 0.0
1.585714 2.362500 0.0
1.628571 2.362500 0.0
1.671429 2.362500 0.0
1.714286 2.362500 0.0
1.757143 2.362500 0.0
1.800000 2.362500 0.0
1.842857 2.362500 0.0
1.885714 2.362500 0.0
1.928571 2.362500 0.0
1.971429 2.362500 0.0
2.014286 2.362500 0.0
2.057143 2.362500 0.0
2.100000 2.362500 0.0
2.142857 2.362500 0.0
2.185714 2.362500 0.0
2.228571 2.362500 0.0
2.271429 2.362500 0.0
2.314286 2.362500 0.0
2.357143 2.362500 0.0
2.400000 2.362500 0.0
2.442857 2.362500 0.0
2.485714 2.362500 0.0
2.528571 2.362500 0.0
2.571429 2.362500 0.0
2.614286 2.362500 0.0
2.657143 2.362500 0.0
2.700000 2.362500 0.0
2.742857 2.362500 0.0
2.785714 2.362500 0.0
2.828571 2.362500 0.0
2.871429 2.362500 0.0
2.914286 2.362500 0.0
2.957143 2.362500 0.0
3.000000 2.362500 0.0
1.500000 2.406250 0.0
1.542857 2.406250 0.0
1.585714 2.406250 0.0
1.628571 2.406250 0.0
1.671429 2.406250 0.0
1.714286 2.406250 0.0
1.757143 2.406250 0.0
1.800000 2.406250 0.0
1.842857 2.406250 0.0
1.885714 2.406250 0.0
1.928571 2.406250 0.0
1.971429 2.406250 0.0
2.014286 2.406250 0.0
2.057143 2.406250 0.0
2.100000 2.406250 0.0
2.142857 2.406250 0.0
2.185714 2.406250 0.0
2.228571 2.406250 0.0
2.271429 2.406250 0.0
2.314286 2.406250 0.0
2.357143 2.406250 0.0
2.400000 2.406250 0.0
2.442857 2.406250 0.0
2.485714 2.406250 0.0
2.528571 2.406250 0.0
2.571429 2.406250 0.0
2.614286 2.406250 0.0
2.657143 2.406250 0.0
2.700000 2.406250 0.0
2.742857 2.406250 0.0
2.785714 2.406250 0.0
2.828571 2.406250 0.0
2.871429 2.406250 0.0
2.914286 2.406250 0.0
2.957143 2.406250 0.0
3.000000 2.406250 0.0
1.500000 2.450000 0.0
1.542857 2.450000 0.0
1.585714 2.450000 0.0
1.628571 2.450000 0.0
1.671429 2.450000 0.0
1.714286 2.450000 0.0
1.757143 2.450000 0.0
1.800000 2.450000 0.0
1.842857 2.450000 0.0
1.885714 2.450000 0.0
1.928571 2.450000 0.0
1.971429 2.450000 0.0
2.014286 2.450000 0.0
2.057143 2.450000 0.0
2.100000 2.450000 0.0
2.142857 2.450000 0.0
2.185714 2.450000 0.0
2.228571 2.450000 0.0
2.271429 2.450000 0.0
2.314286 2.450000 0.0
2.357143 2.450000 0.0
2.400000 2.450000 0.0
2.442857 2.450000 0.0
2.485714 2.450000 0.0
2.528571 2.450000 0.0
2.571429 2.450000 0.0
2.614286 2.450000 0.0
2.657143 2.450000 0.0
2.700000 2.450000 0.0
2.742857 2.450000 0.0
2.785714 2.450000 0.0
2.828571 2.450000 0.0
2.871429 2.450000 0.0
2.914286 2.450000 0.0
2.957143 2.450000 0.0
3.000000 2.450000 0.0
1.500000 2.493750 0.0
1.542857 2.493750 0.0
1.585714 2.493750 0.0
1.628571 2.493750 0.0
1.671429 2.493750 0.0
1.714286 2.493750 0.0
1.757143 2.493750 0.0
1.800000 2.493750 0.0
1.842857 2.493750 0.0
1.885714 2.493750 0.0
1.928571 2.493750 0.0
1.971429 2.493750 0.0
2.014286 2.493750 0.0
2.057143 2.493750 0.0
2.100000 2.493750 0.0
2.142857 2.493750 0.0
2.185714 2.493750 0.0
2.228571 2.493750 0.0
2.271429 2.493750 0.0
2.314286 2.493750 0.0
2.357143 2.493750 0.0
2.400000 2.493750 0.0
2.442857 2.493750 0.0
2.485714 2.493750 0.0
2.528571 2.493750 0.0
2.571429 2.493750 0.0
2.614286 2.493750 0.0
2.657143 2.493750 0.0
2.700000 2.493750 0.0
2.742857 2.493750 0.0
2.785714 2.493750 0.0
2.828571 2.493750 0.0
2.871429 2.493750 0.0
2.914286 2.493750 0.0
2.957143 2.493750 0.0
3.000000 2.493750 0.0
1.500000 2.537500 0.0
1.542857 2.537500 0.0
1.585714 2.537500 0.0
1.628571 2.537500 0.0
1.671429 2.537500 0.0
1.714286 2.537500 0.0
1.757143 2.537500 0.0
1.800000 2.537500 0.0
1.842857 2.537500 0.0
1.885714 2.537500 0.0
1.928571 2.537500 0.0
1.971429 2.537500 0.0
2.014286 2.537500 0.0
2.057143 2.537500 0.0
2.100000 2.537500 0.0
2.142857 2.537500 0.0
2.185714 2.537500 0.0
2.228571 2.537500 0.0
2.271429 2.537500 0.0
2.314286 2.537500 0.0
2.357143 2.537500 0.0
2.400000 2.537500 0.0
2.442857 2.537500 0.0
2.485714 2.537500 0.0
2.528571 2.537500 0.0
2.571429 2.537500 0.0
2.614286 2.537500 0.0
2.657143 2.537500 0.0
2.700000 2.537500 0.0
2.742857 2.537500 0.0
2.785714 2.537500 0.0
2.828571 2.537500 0.0
2.871429 2.537500 0.0
2.914286 2.537500 0.0
2.957143 2.537500 0.0
3.000000 2.537500 0.0
1.500000 2.581250 0.0
1.542857 2.581250 0.0
1.585714 2.581250 0.0
1.628571 2.581250 0.0
1.671429 2.581250 0.0
1.714286 2.581250 0.0
1.757143 2.581250 0.0
1.800000 2.581250 0.0
1.842857 2.581250 0.0
1.885714 2.581250 0.0
1.928571 2.581250 0.0
1.971429 2.581250 0.0
2.014286 2.581250 0.0
2.057143 2.581250 0.0
2.100000 2.581250 0.0
2.142857 2.581250 0.0
2.185714 2.581250 0.0
2.228571 2.581250 0.0
2.271429 2.581250 0.0
2.314286 2.581250 0.0
2.357143 2.581250 0.0
2.400000 2.581250 0.0
2.442857 2.581250 0.0
2.485714 2.581250 0.0
2.528571 2.581250 0.0
2.571429 2.581250 0.0
2.614286 2.581250 0.0
2.657143 2.581250 0.0
2.700000 2.581250 0.0
2.742857 2.581250 0.0
2.785714 2.581250 0.0
2.828571 2.581250 0.0
2.871429 2.581250 0.0
2.914286 2.581250 0.0
2.957143 2.581250 0.0
3.000000 2.581250 0.0
1.500000 2.625000 0.0
1.542857 2.625000 0.0
1.585714 2.625000 0.0
1.628571 2.625000 0.0
1.671429 2.625000 0.0
1.714286 2.625000 0.0
1.757143 2.625000 0.0
1.800000 2.625000 0.0
1.842857 2.625000 0.0
1.885714 2.625000 0.0
1.928571 2.625000 0.0
1.971429 2.625000 0.0
2.014286 2.625000 0.0
2.057143 2.625000 0.0
2.100000 2.625000 0.0
2.142857 2.625000 0.0
2.185714 2.625000 0.0
2.228571 2.625000 0.0
2.271429 2.625000 0.0
2.314286 2.625000 0.0
2.357143 2.625000 0.0
2.400000 2.625000 0.0
2.442857 2.625000 0.0
2.485714 2.625000 0.0
2.528571 2.625000 0.0
2.571429 2.625000 0.0
2.614286 2.625000 0.0
2.657143 2.625000 0.0
2.700000 2.625000 0.0
2.742857 2.625000 0.0
2.785714 2.625000 0.0
2.828571 2.625000 0.0
2.871429 2.625000 0.0
2.914286 2.625000 0.0
2.957143 2.625000 0.0
3.000000 2.625000 0.0
</DataArray></Points>
<PointData>
<DataArray NumberOfComponents="1" format="ascii" type ="Float32" Name="phi">
-0.042463
-0.038919
-0.037429
-0.036965
-0.036377
-0.035068
-0.032696
-0.029332
-0.024906
-0.018344
-0.009014
0.002930
0.014276
0.033465
0.066634
0.104595
0.143451
0.182889
0.222797
0.263108
0.303727
0.344586
0.385667
0.426962
0.468429
0.510019
0.551709
0.593495
0.635430
0.677367
0.716714
0.743231
0.751277
0.750422
0.748940
0.737334
-0.085968
-0.082605
-0.081174
-0.080712
-0.080113
-0.078767
-0.076335
-0.072830
-0.067752
-0.058332
-0.042433
-0.021444
-0.004471
0.014184
0.047165
0.087093
0.127364
0.167970
0.208884
0.250073
0.291478
0.333045
0.374757
0.416610
0.458584
0.500648
0.542783
0.585001
0.627273
0.668071
0.697974
0.708828
0.708478
0.706703
0.705208
0.704526
-0.129501
-0.126302
-0.124924
-0.124462
-0.123853
-0.122468
-0.119969
-0.116319
-0.110709
-0.098999
-0.078521
-0.051922
-0.026466
-0.001340
0.032536
0.073073
0.114471
0.156085
0.197883
0.239837
0.281916
0.324089
0.366341
0.408667
0.451060
0.493507
0.536007
0.578547
0.620293
0.653137
0.666805
0.666924
0.664778
0.662990
0.661476
0.660782
-0.173059
-0.170009
-0.168678
-0.168216
-0.167595
-0.166170
-0.163594
-0.159713
-0.152576
-0.136958
-0.112033
-0.082137
-0.048824
-0.014462
0.022194
0.063214
0.105529
0.147913
0.190364
0.232873
0.275431
0.318027
0.360653
0.403306
0.445985
0.488692
0.531422
0.573689
0.608706
0.625238
0.626058
0.623260
0.621082
0.619278
0.617744
0.617037
-0.216639
-0.213724
-0.212436
-0.211974
-0.211340
-0.209873
-0.207200
-0.202800
-0.192357
-0.170557
-0.139244
-0.102865
-0.063287
-0.023339
0.016507
0.058207
0.100950
0.143695
0.186455
0.229230
0.272018
0.314816
0.357622
0.400436
0.443258
0.486089
0.528509
0.564603
0.583480
0.585683
0.582456
0.579593
0.577387
0.575566
0.574013
0.573293
-0.260240
-0.257449
-0.256200
-0.255736
-0.255088
-0.253572
-0.250613
-0.243079
-0.223606
-0.191110
-0.152335
-0.111177
-0.068721
-0.026295
0.015403
0.057514
0.100309
0.143103
0.185906
0.228716
0.271533
0.314357
0.357189
0.400026
0.442873
0.485225
0.521045
0.540875
0.544814
0.542160
0.538832
0.535927
0.533692
0.531854
0.530282
0.529549
-0.303861
-0.301183
-0.299969
-0.299504
-0.298821
-0.296313
-0.286395
-0.264420
-0.231240
-0.191334
-0.149712
-0.107896
-0.065868
-0.023258
0.019152
0.061229
0.103704
0.146228
0.188796
0.231406
0.274052
0.316724
0.359416
0.402125
0.444122
0.478872
0.497689
0.502405
0.501319
0.498564
0.495211
0.492262
0.489998
0.488143
0.486551
0.485805
-0.347500
-0.344926
-0.343744
-0.343090
-0.337931
-0.321905
-0.294272
-0.258231
-0.218735
-0.178790
-0.138412
-0.097679
-0.056747
-0.014773
0.027433
0.069056
0.110920
0.152914
0.195023
0.237231
0.279518
0.321863
0.364257
0.405453
0.438215
0.454897
0.458910
0.458864
0.457668
0.454966
0.451591
0.448599
0.446304
0.444431
0.442820
0.442061
-0.389139
-0.388037
-0.380835
-0.367214
-0.346304
-0.314764
-0.277441
-0.239610
-0.201226
-0.162424
-0.123210
-0.083538
-0.043303
-0.001924
0.039515
0.080342
0.121429
0.162738
0.204247
0.245915
0.287708
0.329601
0.369404
0.399132
0.412727
0.415379
0.415306
0.415143
0.414010
0.411365
0.407972
0.404937
0.402609
0.400720
0.399090
0.398317
-0.389309
-0.390202
-0.377940
-0.353714
-0.323325
-0.290128
-0.255154
-0.218747
-0.181394
-0.143493
-0.105229
-0.067127
-0.027097
0.014473
0.054724
0.094572
0.134774
0.175284
0.216074
0.257085
0.298281
0.335941
0.361456
0.371197
0.372132
0.371709
0.371569
0.371415
0.370345
0.367760
0.364354
0.361276
0.358915
0.357008
0.355360
0.354574
-0.348228
-0.349684
-0.339961
-0.320177
-0.293442
-0.262836
-0.230088
-0.195742
-0.159885
-0.122811
-0.085020
-0.047519
-0.007308
0.033809
0.072534
0.111425
0.150712
0.190358
0.230345
0.270768
0.305072
0.324844
0.330340
0.329381
0.328414
0.327971
0.327830
0.327683
0.326674
0.324153
0.320736
0.317617
0.315221
0.313297
0.311631
0.310831
-0.305175
-0.306541
-0.299308
-0.283612
-0.260619
-0.232678
-0.202033
-0.169881
-0.136454
-0.101732
-0.064855
-0.025043
0.015935
0.054901
0.092376
0.130365
0.168797
0.207615
0.245733
0.275580
0.289278
0.290129
0.287408
0.285661
0.284678
0.284229
0.284087
0.283947
0.282997
0.280541
0.277118
0.273958
0.271527
0.269585
0.267902
0.267088
-0.261852
-0.263069
-0.257290
-0.244674
-0.225365
-0.200448
-0.171795
-0.141158
-0.109586
-0.077818
-0.041531
0.000625
0.040736
0.077335
0.113951
0.151049
0.188620
0.223305
0.246620
0.253748
0.250809
0.246564
0.243724
0.241939
0.240939
0.240485
0.240342
0.240207
0.239314
0.236924
0.233500
0.230302
0.227833
0.225873
0.224173
0.223345
-0.218396
-0.219491
-0.214574
-0.204040
-0.187807
-0.166191
-0.140106
-0.110873
-0.080005
-0.048859
-0.011546
0.029378
0.065939
0.101214
0.137029
0.173573
0.202983
0.217817
0.218851
0.212958
0.207358
0.202966
0.200041
0.198215
0.197199
0.196739
0.196595
0.196465
0.195626
0.193304
0.189883
0.186647
0.184140
0.182161
0.180445
0.179603
-0.174873
-0.175876
-0.171541
-0.162412
-0.148383
-0.129622
-0.106634
-0.079677
-0.050064
-0.016444
0.021238
0.057441
0.091592
0.126219
0.158849
0.182040
0.189403
0.184318
0.176273
0.169649
0.163912
0.159374
0.156359
0.154491
0.153457
0.152992
0.152847
0.152720
0.151933
0.149678
0.146265
0.142995
0.140446
0.138448
0.136717
0.135862
-0.131311
-0.132245
-0.128350
-0.120248
-0.107854
-0.091105
-0.070921
-0.046305
-0.015984
0.018142
0.051968
0.084752
0.118365
0.144258
0.157278
0.158056
0.150364
0.141452
0.133150
0.126351
0.120482
0.115793
0.112679
0.110766
0.109715
0.109245
0.109099
0.108975
0.108236
0.106048
0.102648
0.099344
0.096753
0.094735
0.092990
0.092120
-0.087730
-0.088603
-0.085061
-0.077707
-0.066785
-0.051497
-0.031896
-0.007230
0.022524
0.052272
0.081695
0.110064
0.128233
0.131049
0.124317
0.115888
0.107522
0.098593
0.090060
0.083064
0.077055
0.072181
0.068944
0.066980
0.065911
0.065434
0.065285
0.065163
0.064467
0.062354
0.058989
0.055669
0.053042
0.051009
0.049255
0.048374
-0.044165
-0.044951
-0.041720
-0.034835
-0.024241
-0.009235
0.010287
0.033723
0.059338
0.086037
0.103902
0.109149
0.103575
0.091361
0.081449
0.072935
0.064652
0.055763
0.047004
0.039784
0.033985
0.029487
0.026438
0.024540
0.023486
0.023012
0.022864
0.022740
0.022095
0.019954
0.016397
0.012885
0.010090
0.007896
0.005970
0.004989
0.000606
-0.000086
0.002923
0.009458
0.019738
0.033800
0.051783
0.072406
0.088617
0.096925
0.091546
0.076240
0.062030
0.049113
0.038617
0.030178
0.022312
0.013587
0.004730
-0.002532
-0.007997
-0.012014
-0.014848
-0.016724
-0.017846
-0.018419
-0.018676
-0.018914
-0.019701
-0.022073
-0.025955
-0.029790
-0.032828
-0.035193
-0.037292
-0.038366
0.045413
0.044779
0.047578
0.053907
0.063299
0.075378
0.086254
0.090886
0.085205
0.070203
0.051915
0.034710
0.019773
0.006359
-0.004313
-0.012472
-0.019963
-0.028580
-0.037477
-0.044827
-0.050383
-0.054469
-0.057388
-0.059359
-0.060582
-0.061260
-0.061625
-0.061972
-0.062917
-0.065402
-0.069348
-0.073330
-0.076486
-0.078884
-0.080987
-0.082059
0.089045
0.088452
0.091067
0.093890
0.093728
0.092147
0.085215
0.070338
0.050448
0.028758
0.008818
-0.008403
-0.023127
-0.036323
-0.047076
-0.055339
-0.062860
-0.071425
-0.080368
-0.088013
-0.093855
-0.098087
-0.101088
-0.103103
-0.104345
-0.105028
-0.105390
-0.105732
-0.106651
-0.109044
-0.112914
-0.116923
-0.120138
-0.122572
-0.124682
-0.114829
</DataArray>
<DataArray NumberOfComponents="1" format="ascii" type ="Float32" Name="u">
-0.000503
-0.000694
-0.000913
-0.001197
-0.001593
-0.002139
-0.002874
-0.003835
-0.005030
-0.006430
-0.008175
-0.010485
-0.013368
-0.015040
-0.014261
-0.013083
-0.012296
-0.011942
-0.011869
-0.011919
-0.011931
-0.011759
-0.011327
-0.010661
-0.009848
-0.008989
-0.008161
-0.007408
-0.006751
-0.006196
-0.005743
-0.005392
-0.005140
-0.004985
-0.004917
-0.004917
-0.000020
0.000149
0.000279
0.000339
0.000287
0.000091
-0.000278
-0.000830
-0.001527
-0.002252
-0.003119
-0.004471
-0.006325
-0.008748
-0.008050
-0.007097
-0.006681
-0.006673
-0.006869
-0.007164
-0.007479
-0.007718
-0.007786
-0.007636
-0.007284
-0.006792
-0.006234
-0.005671
-0.005144
-0.004677
-0.004282
-0.003966
-0.003735
-0.003592
-0.003532
-0.003532
0.000495
0.000979
0.001406
0.001752
0.001979
0.002060
0.001973
0.001710
0.001304
0.000822
0.000314
-0.000247
-0.000710
-0.001845
-0.001515
-0.000766
-0.000711
-0.001079
-0.001599
-0.002164
-0.002736
-0.003276
-0.003721
-0.004010
-0.004113
-0.004040
-0.003834
-0.003547
-0.003226
-0.002909
-0.002617
-0.002370
-0.002179
-0.002054
-0.001997
-0.001997
0.001037
0.001792
0.002474
0.003058
0.003512
0.003809
0.003929
0.003872
0.003670
0.003404
0.003200
0.003171
0.003602
0.004632
0.004769
0.005448
0.005247
0.004581
0.003764
0.002920
0.002089
0.001290
0.000554
-0.000077
-0.000563
-0.000883
-0.001044
-0.001077
-0.001016
-0.000899
-0.000757
-0.000612
-0.000486
-0.000394
-0.000347
-0.000347
0.001616
0.002605
0.003504
0.004289
0.004928
0.005400
0.005689
0.005801
0.005783
0.005738
0.005848
0.006362
0.007635
0.009868
0.010875
0.011371
0.010899
0.010000
0.008954
0.007874
0.006805
0.005768
0.004786
0.003885
0.003098
0.002452
0.001960
0.001617
0.001403
0.001293
0.001258
0.001272
0.001312
0.001356
0.001385
0.001385
0.002221
0.003406
0.004486
0.005436
0.006231
0.006850
0.007285
0.007554
0.007717
0.007906
0.008360
0.009430
0.011490
0.014306
0.016876
0.016964
0.016131
0.014993
0.013751
0.012477
0.011206
0.009964
0.008772
0.007652
0.006630
0.005729
0.004970
0.004360
0.003896
0.003565
0.003348
0.003221
0.003162
0.003147
0.003152
0.003152
0.002816
0.004159
0.005385
0.006471
0.007396
0.008145
0.008718
0.009143
0.009500
0.009958
0.010822
0.012559
0.015572
0.019163
0.022309
0.021979
0.020824
0.019453
0.018018
0.016565
0.015119
0.013704
0.012339
0.011046
0.009843
0.008753
0.007794
0.006978
0.006313
0.005793
0.005411
0.005151
0.004994
0.004918
0.004896
0.004896
0.003349
0.004815
0.006156
0.007355
0.008394
0.009266
0.009981
0.010579
0.011164
0.011950
0.013331
0.015888
0.020036
0.024787
0.026982
0.026284
0.024875
0.023286
0.021655
0.020025
0.018421
0.016859
0.015359
0.013936
0.012606
0.011386
0.010290
0.009332
0.008520
0.007860
0.007348
0.006977
0.006735
0.006604
0.006557
0.006557
0.003765
0.005325
0.006760
0.008057
0.009205
0.010206
0.011079
0.011882
0.012751
0.013957
0.015992
0.019514
0.024650
0.030342
0.031131
0.029938
0.028233
0.026407
0.024573
0.022772
0.021026
0.019350
0.017754
0.016250
0.014847
0.013553
0.012379
0.011337
0.010435
0.009681
0.009079
0.008628
0.008322
0.008147
0.008079
0.008079
0.004016
0.005651
0.007168
0.008560
0.009826
0.010973
0.012036
0.013093
0.014321
0.016072
0.018958
0.023682
0.029843
0.034989
0.034579
0.032828
0.030790
0.028719
0.026692
0.024745
0.022894
0.021148
0.019510
0.017980
0.016558
0.015247
0.014049
0.012973
0.012027
0.011221
0.010565
0.010062
0.009713
0.009508
0.009426
0.009426
0.004067
0.005771
0.007371
0.008868
0.010269
0.011593
0.012888
0.014263
0.015950
0.018400
0.022362
0.028458
0.035646
0.038346
0.036964
0.034765
0.032436
0.030152
0.027976
0.025937
0.024041
0.022288
0.020670
0.019176
0.017794
0.016519
0.015346
0.014277
0.013322
0.012494
0.011807
0.011274
0.010897
0.010672
0.010580
0.010580
0.003903
0.005682
0.007378
0.009000
0.010564
0.012102
0.013684
0.015459
0.017729
0.021070
0.026317
0.033933
0.040319
0.040411
0.038263
0.035704
0.033149
0.030721
0.028471
0.026415
0.024550
0.022862
0.021330
0.019934
0.018650
0.017462
0.016356
0.015328
0.014387
0.013551
0.012844
0.012287
0.011890
0.011650
0.011551
0.011551
0.003520
0.005393
0.007207
0.008981
0.010742
0.012541
0.014477
0.016754
0.019773
0.024260
0.031114
0.039366
0.042664
0.041147
0.038483
0.035691
0.033017
0.030544
0.028310
0.026320
0.024558
0.022999
0.021613
0.020368
0.019233
0.018180
0.017184
0.016230
0.015320
0.014476
0.013742
0.013155
0.012733
0.012478
0.012371
0.012371
0.002926
0.004920
0.006881
0.008838
0.010836
0.012947
0.015312
0.018218
0.022174
0.028072
0.036455
0.042765
0.043000
0.040606
0.037724
0.034895
0.032249
0.029838
0.027700
0.025838
0.024228
0.022838
0.021632
0.020575
0.019629
0.018758
0.017921
0.017083
0.016225
0.015367
0.014583
0.013947
0.013489
0.013211
0.013094
0.013094
0.002129
0.004274
0.006412
0.008587
0.010867
0.013349
0.016215
0.019913
0.025020
0.032502
0.040463
0.043342
0.041857
0.039117
0.036293
0.033631
0.031152
0.028875
0.026870
0.025156
0.023710
0.022495
0.021475
0.020613
0.019875
0.019220
0.018597
0.017943
0.017193
0.016320
0.015448
0.014734
0.014227
0.013922
0.013792
0.013792
0.001129
0.003460
0.005804
0.008229
0.010841
0.013776
0.017157
0.022018
0.028392
0.036273
0.041566
0.041905
0.039751
0.037083
0.034555
0.032238
0.030033
0.027899
0.026009
0.024427
0.023127
0.022066
0.021206
0.020515
0.019965
0.019523
0.019145
0.018756
0.018230
0.017387
0.016376
0.015570
0.015020
0.014697
0.014559
0.014559
-0.000077
0.002464
0.005041
0.007732
0.010734
0.014356
0.018547
0.024305
0.031304
0.037681
0.040332
0.039508
0.037276
0.034876
0.032755
0.030904
0.029091
0.027038
0.025227
0.023761
0.022592
0.021660
0.020921
0.020342
0.019906
0.019598
0.019402
0.019277
0.019097
0.018474
0.017282
0.016450
0.015933
0.015644
0.015522
0.015522
-0.001584
0.001269
0.004194
0.007297
0.010805
0.015043
0.020195
0.026091
0.032538
0.036998
0.038075
0.036901
0.034839
0.032653
0.030877
0.029505
0.028286
0.026213
0.024528
0.023246