<VTKFile type="StructuredGrid" version="0.1" byte_order="LittleEndian">
<StructuredGrid WholeExtent="1 71 1 81 0 0">
<Piece Extent="36 71 61 81 0 0">
<PointData></PointData>
<CellData></CellData>
<Points>
<DataArray NumberOfComponents="3" format="ascii" type ="Float32" Name="mesh">
1.500000 2.625000 0.0
1.542857 2.625000 0.0
1.585714 2.625000 0.0
1.628571 2.625000 0.0
1.671429 2.625000 0.0
1.714286 2.625000 0.0
1.757143 2.625000 0.0
1.800000 2.625000 0.0
1.842857 2.625000 0.0
1.885714 2.625000 0.0
1.928571 2.625000 0.0
1.971429 2.625000 0.0
2.014286 2.625000 0.0
2.057143 2.625000 0.0
2.100000 2.625000 0.0
2.142857 2.625000 0.0
2.185714 2.625000 0.0
2.228571 2.625000 0.0
2.271429 2.625000 0.0
2.314286 2.625000 0.0
2.357143 2.625000 0.0
2.400000 2.625000 0.0
2.442857 2.625000 0.0
2.485714 2.625000 0.0
2.528571 2.625000 0.0
2.571429 2.625000 0.0
2.614286 2.625000 0.0
2.657143 2.625000 0.0
2.700000 2.625000 0.0
2.742857 2.625000 0.0
2.785714 2.625000 0.0
2.828571 2.625000 0.0
2.871429 2.625000 0.0
2.914286 2.625000 0.0
2.957143 2.625000 0.0
3.000000 2.625000 0.0
1.500000 2.668750 0.0
1.542857 2.668750 0.0
1.585714 2.668750 0.0
1.628571 2.668750 0.0
1.671429 2.668750 0.0
1.714286 2.668750 0.0
1.757143 2.668750 0.0
1.800000 2.668750 0.0
1.842857 2.668750 0.0
1.885714 2.668750 0.0
1.928571 2.668750 0.0
1.971429 2.668750 0.0
2.014286 2.668750 0.0
2.057143 2.668750 0.0
2.100000 2.668750 0.0
2.142857 2.668750 0.0
2.185714 2.668750 0.0
2.228571 2.668750 0.0
2.271429 2.668750 0.0
2.314286 2.668750 0.0
2.357143 2.668750 0.0
2.400000 2.668750 0.0
2.442857 2.668750 0.0
2.485714 2.668750 0.0
2.528571 2.668750 0.0
2.571429 2.668750 0.0
2.614286 2.668750 0.0
2.657143 2.668750 0.0
2.700000 2.668750 0.0
2.742857 2.668750 0.0
2.785714 2.668750 0.0
2.828571 2.668750 0.0
2.871429 2.668750 0.0
2.914286 2.668750 0.0
2.957143 2.668750 0.0
3.000000 2.668750 0.0
1.500000 2.712500 0.0
1.542857 2.712500 0.0
1.585714 2.712500 0.0
1.628571 2.712500 0.0
1.671429 2.712500 0.0
1.714286 2.712500 0.0
1.757143 2.712500 0.0
1.800000 2.712500 0.0
1.842857 2.712500 0.0
1.885714 2.712500 0.0
1.928571 2.712500 0.0
1.971429 2.712500 0.0
2.014286 2.712500 0.0
2.057143 2.712500 0.0
2.100000 2.712500 0.0
2.142857 2.712500 0.0
2.185714 2.712500 0.0
2.228571 2.712500 0.0
2.271429 2.712500 0.0
2.314286 2.712500 0.0
2.357143 2.712500 0.0
2.400000 2.712500 0.0
2.442857 2.712500 0.0
2.485714 2.712500 0.0
2.528571 2.712500 0.0
2.571429 2.712500 0.0
2.614286 2.712500 0.0
2.657143 2.712500 0.0
2.700000 2.712500 0.0
2.742857 2.712500 0.0
2.785714 2.712500 0.0
2.828571 2.712500 0.0
2.871429 2.712500 0.0
2.914286 2.712500 0.0
2.957143 2.712500 0.0
3.000000 2.712500 0.0
1.500000 2.756250 0.0
1.542857 2.756250 0.0
1.585714 2.756250 0.0
1.628571 2.756250 0.0
1.671429 2.756250 0.0
1.714286 2.756250 0.0
1.757143 2.756250 0.0
1.800000 2.756250 0.0
1.842857 2.756250 0.0
1.885714 2.756250 0.0
1.928571 2.756250 0.0
1.971429 2.756250 0.0
2.014286 2.756250 0.0
2.057143 2.756250 0.0
2.100000 2.756250 0.0
2.142857 2.756250 0.0
2.185714 2.756250 0.0
2.228571 2.756250 0.0
2.271429 2.756250 0.0
2.314286 2.756250 0.0
2.357143 2.756250 0.0
2.400000 2.756250 0.0
2.442857 2.756250 0.0
2.485714 2.756250 0.0
2.528571 2.756250 0.0
2.571429 2.756250 0.0
2.614286 2.756250 0.0
2.657143 2.756250 0.0
2.700000 2.756250 0.0
2.742857 2.756250 0.0
2.785714 2.756250 0.0
2.828571 2.756250 0.0
2.871429 2.756250 0.0
2.914286 2.756250 0.0
2.957143 2.756250 0.0
3.000000 2.756250 0.0
1.500000 2.800000 0.0
1.542857 2.800000 0.0
1.585714 2.800000 0.0
1.628571 2.800000 0.0
1.671429 2.800000 0.0
1.714286 2.800000 0.0
1.757143 2.800000 0.0
1.800000 2.800000 0.0
1.842857 2.800000 0.0
1.885714 2.800000 0.0
1.928571 2.800000 0.0
1.971429 2.800000 0.0
2.014286 2.800000 0.0
2.057143 2.800000 0.0
2.100000 2.800000 0.0
2.142857 2.800000 0.0
2.185714 2.800000 0.0
2.228571 2.800000 0.0
2.271429 2.800000 0.0
2.314286 2.800000 0.0
2.357143 2.800000 0.0
2.400000 2.800000 0.0
2.442857 2.800000 0.0
2.485714 2.800000 0.0
2.528571 2.800000 0.0
2.571429 2.800000 0.0
2.614286 2.800000 0.0
2.657143 2.800000 0.0
2.700000 2.800000 0.0
2.742857 2.800000 0.0
2.785714 2.800000 0.0
2.828571 2.800000 0.0
2.871429 2.800000 0.0
2.914286 2.800000 0.0
2.957143 2.800000 0.0
3.000000 2.800000 0.0
1.500000 2.843750 0.0
1.542857 2.843750 0.0
1.585714 2.843750 0.0
1.628571 2.843750 0.0
1.671429 2.843750 0.0
1.714286 2.843750 0.0
1.757143 2.843750 0.0
1.800000 2.843750 0.0
1.842857 2.843750 0.0
1.885714 2.843750 0.0
1.928571 2.843750 0.0
1.971429 2.843750 0.0
2.014286 2.843750 0.0
2.057143 2.843750 0.0
2.100000 2.843750 0.0
2.142857 2.843750 0.0
2.185714 2.843750 0.0
2.228571 2.843750 0.0
2.271429 2.843750 0.0
2.314286 2.843750 0.0
2.357143 2.843750 0.0
2.400000 2.843750 0.0
2.442857 2.843750 0.0
2.485714 2.843750 0.0
2.528571 2.843750 0.0
2.571429 2.843750 0.0
2.614286 2.843750 0.0
2.657143 2.843750 0.0
2.700000 2.843750 0.0
2.742857 2.843750 0.0
2.785714 2.843750 0.0
2.828571 2.843750 0.0
2.871429 2.843750 0.0
2.914286 2.843750 0.0
2.957143 2.843750 0.0
3.000000 2.843750 0.0
1.500000 2.887500 0.0
1.542857 2.887500 0.0
1.585714 2.887500 0.0
1.628571 2.887500 0.0
1.671429 2.887500 0.0
1.714286 2.887500 0.0
1.757143 2.887500 0.0
1.800000 2.887500 0.0
1.842857 2.887500 0.0
1.885714 2.887500 0.0
1.928571 2.887500 0.0
1.971429 2.887500 0.0
2.014286 2.887500 0.0
2.057143 2.887500 0.0
2.100000 2.887500 0.0
2.142857 2.887500 0.0
2.185714 2.887500 0.0
2.228571 2.887500 0.0
2.271429 2.887500 0.0
2.314286 2.887500 0.0
2.357143 2.887500 0.0
2.400000 2.887500 0.0
2.442857 2.887500 0.0
2.485714 2.887500 0.0
2.528571 2.887500 0.0
2.571429 2.887500 0.0
2.614286 2.887500 0.0
2.657143 2.887500 0.0
2.700000 2.887500 0.0
2.742857 2.887500 0.0
2.785714 2.887500 0.0
2.828571 2.887500 0.0
2.871429 2.887500 0.0
2.914286 2.887500 0.0
2.957143 2.887500 0.0
3.000000 2.887500 0.0
1.500000 2.931250 0.0
1.542857 2.931250 0.0
1.585714 2.931250 0.0
1.628571 2.931250 0.0
1.671429 2.931250 0.0
1.714286 2.931250 0.0
1.757143 2.931250 0.0
1.800000 2.931250 0.0
1.842857 2.931250 0.0
1.885714 2.931250 0.0
1.928571 2.931250 0.0
1.971429 2.931250 0.0
2.014286 2.931250 0.0
2.057143 2.931250 0.0
2.100000 2.931250 0.0
2.142857 2.931250 0.0
2.185714 2.931250 0.0
2.228571 2.931250 0.0
2.271429 2.931250 0.0
2.314286 2.931250 0.0
2.357143 2.931250 0.0
2.400000 2.931250 0.0
2.442857 2.931250 0.0
2.485714 2.931250 0.0
2.528571 2.931250 0.0
2.571429 2.931250 0.0
2.614286 2.931250 0.0
2.657143 2.931250 0.0
2.700000 2.931250 0.0
2.742857 2.931250 0.0
2.785714 2.931250 0.0
2.828571 2.931250 0.0
2.871429 2.931250 0.0
2.914286 2.931250 0.0
2.957143 2.931250 0.0
3.000000 2.931250 0.0
1.500000 2.975000 0.0
1.542857 2.975000 0.0
1.585714 2.975000 0.0
1.628571 2.975000 0.0
1.671429 2.975000 0.0
1.714286 2.975000 0.0
1.757143 2.975000 0.0
1.800000 2.975000 0.0
1.842857 2.975000 0.0
1.885714 2.975000 0.0
1.928571 2.975000 0.0
1.971429 2.975000 0.0
2.014286 2.975000 0.0
2.057143 2.975000 0.0
2.100000 2.975000 0.0
2.142857 2.975000 0.0
2.185714 2.975000 0.0
2.228571 2.975000 0.0
2.271429 2.975000 0.0
2.314286 2.975000 0.0
2.357143 2.975000 0.0
2.400000 2.975000 0.0
2.442857 2.975000 0.0
2.485714 2.975000 0.0
2.528571 2.975000 0.0
2.571429 2.975000 0.0
2.614286 2.975000 0.0
2.657143 2.975000 0.0
2.700000 2.975000 0.0
2.742857 2.975000 0.0
2.785714 2.975000 0.0
2.828571 2.975000 0.0
2.871429 2.975000 0.0
2.914286 2.975000 0.0
2.957143 2.975000 0.0
3.000000 2.975000 0.0
1.500000 3.018750 0.0
1.542857 3.018750 0.0
1.585714 3.018750 0.0
1.628571 3.018750 0.0
1.671429 3.018750 0.0
1.714286 3.018750 0.0
1.757143 3.018750 0.0
1.800000 3.018750 0.0
1.842857 3.018750 0.0
1.885714 3.018750 0.0
1.928571 3.018750 0.0
1.971429 3.018750 0.0
2.014286 3.018750 0.0
2.057143 3.018750 0.0
2.100000 3.018750 0.0
2.142857 3.018750 0.0
2.185714 3.018750 0.0
2.228571 3.018750 0.0
2.271429 3.018750 0.0
2.314286 3.018750 0.0
2.357143 3.018750 0.0
2.400000 3.018750 0.0
2.442857 3.018750 0.0
2.485714 3.018750 0.0
2.528571 3.018750 0.0
2.571429 3.018750 0.0
2.614286 3.018750 0.0
2.657143 3.018750 0.0
2.700000 3.018750 0.0
2.742857 3.018750 0.0
2.785714 3.018750 0.0
2.828571 3.018750 0.0
2.871429 3.018750 0.0
2.914286 3.018750 0.0
2.957143 3.018750 0.0
3.000000 3.018750 0.0
1.500000 3.062500 0.0
1.542857 3.062500 0.0
1.585714 3.062500 0.0
1.628571 3.062500 0.0
1.671429 3.062500 0.0
1.714286 3.062500 0.0
1.757143 3.062500 0.0
1.800000 3.062500 0.0
1.842857 3.062500 0.0
1.885714 3.062500 0.0
1.928571 3.062500 0.0
1.971429 3.062500 0.0
2.014286 3.062500 0.0
2.057143 3.062500 0.0
2.100000 3.062500 0.0
2.142857 3.062500 0.0
2.185714 3.062500 0.0
2.228571 3.062500 0.0
2.271429 3.062500 0.0
2.314286 3.062500 0.0
2.357143 3.062500 0.0
2.400000 3.062500 0.0
2.442857 3.062500 0.0
2.485714 3.062500 0.0
2.528571 3.062500 0.0
2.571429 3.062500 0.0
2.614286 3.062500 0.0
2.657143 3.062500 0.0
2.700000 3.062500 0.0
2.742857 3.062500 0.0
2.785714 3.062500 0.0
2.828571 3.062500 0.0
2.871429 3.062500 0.0
2.914286 3.062500 0.0
2.957143 3.062500 0.0
3.000000 3.062500 0.0
1.500000 3.106250 0.0
1.542857 3.106250 0.0
1.585714 3.106250 0.0
1.628571 3.106250 0.0
1.671429 3.106250 0.0
1.714286 3.106250 0.0
1.757143 3.106250 0.0
1.800000 3.106250 0.0
1.842857 3.106250 0.0
1.885714 3.106250 0.0
1.928571 3.106250 0.0
1.971429 3.106250 0.0
2.014286 3.106250 0.0
2.057143 3.106250 0.0
2.100000 3.106250 0.0
2.142857 3.106250 0.0
2.185714 3.106250 0.0
2.228571 3.106250 0.0
2.271429 3.106250 0.0
2.314286 3.106250 0.0
2.357143 3.106250 0.0
2.400000 3.106250 0.0
2.442857 3.106250 0.0
2.485714 3.106250 0.0
2.528571 3.106250 0.0
2.571429 3.106250 0.0
2.614286 3.106250 0.0
2.657143 3.106250 0.0
2.700000 3.106250 0.0
2.742857 3.106250 0.0
2.785714 3.106250 0.0
2.828571 3.106250 0.0
2.871429 3.106250 0.0
2.914286 3.106250 0.0
2.957143 3.106250 0.0
3.000000 3.106250 0.0
1.500000 3.150000 0.0
1.542857 3.150000 0.0
1.585714 3.150000 0.0
1.628571 3.150000 0.0
1.671429 3.150000 0.0
1.714286 3.150000 0.0
1.757143 3.150000 0.0
1.800000 3.150000 0.0
1.842857 3.150000 0.0
1.885714 3.150000 0.0
1.928571 3.150000 0.0
1.971429 3.150000 0.0
2.014286 3.150000 0.0
2.057143 3.150000 0.0
2.100000 3.150000 0.0
2.142857 3.150000 0.0
2.185714 3.150000 0.0
2.228571 3.150000 0.0
2.271429 3.150000 0.0
2.314286 3.150000 0.0
2.357143 3.150000 0.0
2.400000 3.150000 0.0
2.442857 3.150000 0.0
2.485714 3.150000 0.0
2.528571 3.150000 0.0
2.571429 3.150000 0.0
2.614286 3.150000 0.0
2.657143 3.150000 0.0
2.700000 3.150000 0.0
2.742857 3.150000 0.0
2.785714 3.150000 0.0
2.828571 3.150000 0.0
2.871429 3.150000 0.0
2.914286 3.150000 0.0
2.957143 3.150000 0.0
3.000000 3.150000 0.0
1.500000 3.193750 0.0
1.542857 3.193750 0.0
1.585714 3.193750 0.0
1.628571 3.193750 0.0
1.671429 3.193750 0.0
1.714286 3.193750 0.0
1.757143 3.193750 0.0
1.800000 3.193750 0.0
1.842857 3.193750 0.0
1.885714 3.193750 0.0
1.928571 3.193750 0.0
1.971429 3.193750 0.0
2.014286 3.193750 0.0
2.057143 3.193750 0.0
2.100000 3.193750 0.0
2.142857 3.193750 0.0
2.185714 3.193750 0.0
2.228571 3.193750 0.0
2.271429 3.193750 0.0
2.314286 3.193750 0.0
2.357143 3.193750 0.0
2.400000 3.193750 0.0
2.442857 3.193750 0.0
2.485714 3.193750 0.0
2.528571 3.193750 0.0
2.571429 3.193750 0.0
2.614286 3.193750 0.0
2.657143 3.193750 0.0
2.700000 3.193750 0.0
2.742857 3.193750 0.0
2.785714 3.193750 0.0
2.828571 3.193750 0.0
2.871429 3.193750 0.0
2.914286 3.193750 0.0
2.957143 3.193750 0.0
3.000000 3.193750 0.0
1.500000 3.237500 0.0
1.542857 3.237500 0.0
1.585714 3.237500 0.0
1.628571 3.237500 0.0
1.671429 3.237500 0.0
1.714286 3.237500 0.0
1.757143 3.237500 0.0
1.800000 3.237500 0.0
1.842857 3.237500 0.0
1.885714 3.237500 0.0
1.928571 3.237500 0.0
1.971429 3.237500 0.0
2.014286 3.237500 0.0
2.057143 3.237500 0.0
2.100000 3.237500 0.0
2.142857 3.237500 0.0
2.185714 3.237500 0.0
2.228571 3.237500 0.0
2.271429 3.237500 0.0
2.314286 3.237500 0.0
2.357143 3.237500 0.0
2.400000 3.237500 0.0
2.442857 3.237500 0.0
2.485714 3.237500 0.0
2.528571 3.237500 0.0
2.571429 3.237500 0.0
2.614286 3.237500 0.0
2.657143 3.237500 0.0
2.700000 3.237500 0.0
2.742857 3.237500 0.0
2.785714 3.237500 0.0
2.828571 3.237500 0.0
2.871429 3.237500 0.0
2.914286 3.237500 0.0
2.957143 3.237500 0.0
3.000000 3.237500 0.0
1.500000 3.281250 0.0
1.542857 3.281250 0.0
1.585714 3.281250 0.0
1.628571 3.281250 0.0
1.671429 3.281250 0.0
1.714286 3.281250 0.0
1.757143 3.281250 0.0
1.800000 3.281250 0.0
1.842857 3.281250 0.0
1.885714 3.281250 0.0
1.928571 3.281250 0.0
1.971429 3.281250 0.0
2.014286 3.281250 0.0
2.057143 3.281250 0.0
2.100000 3.281250 0.0
2.142857 3.281250 0.0
2.185714 3.281250 0.0
2.228571 3.281250 0.0
2.271429 3.281250 0.0
2.314286 3.281250 0.0
2.357143 3.281250 0.0
2.400000 3.281250 0.0
2.442857 3.281250 0.0
2.485714 3.281250 0.0
2.528571 3.281250 0.0
2.571429 3.281250 0.0
2.614286 3.281250 0.0
2.657143 3.281250 0.0
2.700000 3.281250 0.0
2.742857 3.281250 0.0
2.785714 3.281250 0.0
2.828571 3.281250 0.0
2.871429 3.281250 0.0
2.914286 3.281250 0.0
2.957143 3.281250 0.0
3.000000 3.281250 0.0
1.500000 3.325000 0.0
1.542857 3.325000 0.0
1.585714 3.325000 0.0
1.628571 3.325000 0.0
1.671429 3.325000 0.0
1.714286 3.325000 0.0
1.757143 3.325000 0.0
1.800000 3.325000 0.0
1.842857 3.325000 0.0
1.885714 3.325000 0.0
1.928571 3.325000 0.0
1.971429 3.325000 0.0
2.014286 3.325000 0.0
2.057143 3.325000 0.0
2.100000 3.325000 0.0
2.142857 3.325000 0.0
2.185714 3.325000 0.0
2.228571 3.325000 0.0
2.271429 3.325000 0.0
2.314286 3.325000 0.0
2.357143 3.325000 0.0
2.400000 3.325000 0.0
2.442857 3.325000 0.0
2.485714 3.325000 0.0
2.528571 3.325000 0.0
2.571429 3.325000 0.0
2.614286 3.325000 0.0
2.657143 3.325000 0.0
2.700000 3.325000 0.0
2.742857 3.325000 0.0
2.785714 3.325000 0.0
2.828571 3.325000 0.0
2.871429 3.325000 0.0
2.914286 3.325000 0.0
2.957143 3.325000 0.0
3.000000 3.325000 0.0
1.500000 3.368750 0.0
1.542857 3.368750 0.0
1.585714 3.368750 0.0
1.628571 3.368750 0.0
1.671429 3.368750 0.0
1.714286 3.368750 0.0
1.757143 3.368750 0.0
1.800000 3.368750 0.0
1.842857 3.368750 0.0
1.885714 3.368750 0.0
1.928571 3.368750 0.0
1.971429 3.368750 0.0
2.014286 3.368750 0.0
2.057143 3.368750 0.0
2.100000 3.368750 0.0
2.142857 3.368750 0.0
2.185714 3.368750 0.0
2.228571 3.368750 0.0
2.271429 3.368750 0.0
2.314286 3.368750 0.0
2.357143 3.368750 0.0
2.400000 3.368750 0.0
2.442857 3.368750 0.0
2.485714 3.368750 0.0
2.528571 3.368750 0.0
2.571429 3.368750 0.0
2.614286 3.368750 0.0
2.657143 3.368750 0.0
2.700000 3.368750 0.0
2.742857 3.368750 0.0
2.785714 3.368750 0.0
2.828571 3.368750 0.0
2.871429 3.368750 0.0
2.914286 3.368750 0.0
2.957143 3.368750 0.0
3.000000 3.368750 0.0
1.500000 3.412500 0.0
1.542857 3.412500 0.0
1.585714 3.412500 0.0
1.628571 3.412500 0.0
1.671429 3.412500 0.0
1.714286 3.412500 0.0
1.757143 3.412500 0.0
1.800000 3.412500 0.0
1.842857 3.412500 0.0
1.885714 3.412500 0.0
1.928571 3.412500 0.0
1.971429 3.412500 0.0
2.014286 3.412500 0.0
2.057143 3.412500 0.0
2.100000 3.412500 0.0
2.142857 3.412500 0.0
2.185714 3.412500 0.0
2.228571 3.412500 0.0
2.271429 3.412500 0.0
2.314286 3.412500 0.0
2.357143 3.412500 0.0
2.400000 3.412500 0.0
2.442857 3.412500 0.0
2.485714 3.412500 0.0
2.528571 3.412500 0.0
2.571429 3.412500 0.0
2.614286 3.412500 0.0
2.657143 3.412500 0.0
2.700000 3.412500 0.0
2.742857 3.412500 0.0
2.785714 3.412500 0.0
2.828571 3.412500 0.0
2.871429 3.412500 0.0
2.914286 3.412500 0.0
2.957143 3.412500 0.0
3.000000 3.412500 0.0
1.500000 3.456250 0.0
1.542857 3.456250 0.0
1.585714 3.456250 0.0
1.628571 3.456250 0.0
1.671429 3.456250 0.0
1.714286 3.456250 0.0
1.757143 3.456250 0.0
1.800000 3.456250 0.0
1.842857 3.456250 0.0
1.885714 3.456250 0.0
1.928571 3.456250 0.0
1.971429 3.456250 0.0
2.014286 3.456250 0.0
2.057143 3.456250 0.0
2.100000 3.456250 0.0
2.142857 3.456250 0.0
2.185714 3.456250 0.0
2.228571 3.456250 0.0
2.271429 3.456250 0.0
2.314286 3.456250 0.0
2.357143 3.456250 0.0
2.400000 3.456250 0.0
2.442857 3.456250 0.0
2.485714 3.456250 0.0
2.528571 3.456250 0.0
2.571429 3.456250 0.0
2.614286 3.456250 0.0
2.657143 3.456250 0.0
2.700000 3.456250 0.0
2.742857 3.456250 0.0
2.785714 3.456250 0.0
2.828571 3.456250 0.0
2.871429 3.456250 0.0
2.914286 3.456250 0.0
2.957143 3.456250 0.0
3.000000 3.456250 0.0
1.500000 3.500000 0.0
1.542857 3.500000 0.0
1.585714 3.500000 0.0
1.628571 3.500000 0.0
1.671429 3.500000 0.0
1.714286 3.500000 0.0
1.757143 3.500000 0.0
1.800000 3.500000 0.0
1.842857 3.500000 0.0
1.885714 3.500000 0.0
1.928571 3.500000 0.0
1.971429 3.500000 0.0
2.014286 3.500000 0.0
2.057143 3.500000 0.0
2.100000 3.500000 0.0
2.142857 3.500000 0.0
2.185714 3.500000 0.0
2.228571 3.500000 0.0
2.271429 3.500000 0.0
2.314286 3.500000 0.0
2.357143 3.500000 0.0
2.400000 3.500000 0.0
2.442857 3.500000 0.0
2.485714 3.500000 0.0
2.528571 3.500000 0.0
2.571429 3.500000 0.0
2.614286 3.500000 0.0
2.657143 3.500000 0.0
2.700000 3.500000 0.0
2.742857 3.500000 0.0
2.785714 3.500000 0.0
2.828571 3.500000 0.0
2.871429 3.500000 0.0
2.914286 3.500000 0.0
2.957143 3.500000 0.0
3.000000 3.500000 0.0
</DataArray></Points>
<PointData>
<DataArray NumberOfComponents="1" format="ascii" type ="Float32" Name="phi">
-0.110874
-0.110416
-0.113091
-0.118676
-0.127653
-0.140049
-0.155114
-0.172527
-0.181959
-0.170667
-0.141714
-0.106019
-0.069390
-0.034290
-0.009304
0.000406
-0.000813
-0.009773
-0.027452
-0.053064
-0.079928
-0.100615
-0.111181
-0.115307
-0.123126
-0.131968
-0.134672
-0.133849
-0.131834
-0.128840
-0.124754
-0.118829
-0.113214
-0.109992
-0.109188
-0.120475
-0.154534
-0.154131
-0.156652
-0.161847
-0.170118
-0.181701
-0.195258
-0.200021
-0.183646
-0.151722
-0.116820
-0.082302
-0.046669
-0.016724
-0.002540
-0.002289
-0.011191
-0.029844
-0.056492
-0.085517
-0.113675
-0.138271
-0.153088
-0.158888
-0.166361
-0.175164
-0.178335
-0.177563
-0.175499
-0.172430
-0.168189
-0.162221
-0.156757
-0.153681
-0.152936
-0.153286
-0.198212
-0.197855
-0.200240
-0.205103
-0.212774
-0.219633
-0.216999
-0.196800
-0.163341
-0.126829
-0.090638
-0.056024
-0.024899
-0.006241
-0.003875
-0.012978
-0.032005
-0.058741
-0.088339
-0.117622
-0.146463
-0.173565
-0.193166
-0.202069
-0.209496
-0.218299
-0.221933
-0.221273
-0.219158
-0.216007
-0.211612
-0.205624
-0.200320
-0.197378
-0.196685
-0.197035
-0.241922
-0.241583
-0.243878
-0.245164
-0.240410
-0.227716
-0.203849
-0.172201
-0.138587
-0.102815
-0.066590
-0.032104
-0.009354
-0.004463
-0.012686
-0.033705
-0.061890
-0.090673
-0.120111
-0.149528
-0.178729
-0.207132
-0.231027
-0.244161
-0.252420
-0.261352
-0.265461
-0.264980
-0.262812
-0.259567
-0.255022
-0.249036
-0.243896
-0.241079
-0.240434
-0.240783
-0.249830
-0.250545
-0.249820
-0.245095
-0.229116
-0.202749
-0.173253
-0.142710
-0.110646
-0.076357
-0.041504
-0.013941
-0.004103
-0.011293
-0.030322
-0.060119
-0.092498
-0.122271
-0.151833
-0.181346
-0.210724
-0.239722
-0.266562
-0.284454
-0.295075
-0.304319
-0.308928
-0.308686
-0.306460
-0.303107
-0.298419
-0.292459
-0.287486
-0.284783
-0.284183
-0.284532
-0.214132
-0.215857
-0.212261
-0.205645
-0.192705
-0.170036
-0.141910
-0.111837
-0.080778
-0.047614
-0.017198
-0.003352
-0.008817
-0.028968
-0.057522
-0.088668
-0.121165
-0.152571
-0.183010
-0.212939
-0.242537
-0.271863
-0.300244
-0.322717
-0.337129
-0.347171
-0.352357
-0.352392
-0.350103
-0.346627
-0.341803
-0.335894
-0.331087
-0.328491
-0.327932
-0.328280
-0.170631
-0.172327
-0.168915
-0.163019
-0.153577
-0.135583
-0.110112
-0.081042
-0.050930
-0.020375
-0.001673
-0.004922
-0.023951
-0.054077
-0.087257
-0.118679
-0.150413
-0.182145
-0.213409
-0.244025
-0.274062
-0.303716
-0.332843
-0.358916
-0.377821
-0.389809
-0.395781
-0.396100
-0.393738
-0.390125
-0.385177
-0.379341
-0.374698
-0.372203
-0.371681
-0.372028
-0.127103
-0.128858
-0.125537
-0.119507
-0.112249
-0.098408
-0.077036
-0.049652
-0.019354
0.001254
0.000445
-0.019335
-0.048292
-0.081147
-0.114789
-0.147469
-0.179596
-0.211590
-0.243263
-0.274482
-0.305117
-0.335223
-0.364858
-0.393077
-0.416288
-0.431796
-0.439166
-0.439804
-0.437363
-0.433604
-0.428544
-0.422801
-0.418320
-0.415917
-0.415430
-0.415777
-0.083722
-0.085403
-0.082152
-0.075762
-0.069958
-0.058629
-0.038451
-0.013649
0.006009
0.005735
-0.014487
-0.044267
-0.076656
-0.109316
-0.142370
-0.175414
-0.208154
-0.240567
-0.272657
-0.304371
-0.335596
-0.366262
-0.396404
-0.425746
-0.452311
-0.472265
-0.482241
-0.483499
-0.480973
-0.477065
-0.471911
-0.466272
-0.461951
-0.459634
-0.459179
-0.459525
-0.040134
-0.041927
-0.038832
-0.032150
-0.025537
-0.014780
0.000561
0.012402
0.009743
-0.010960
-0.041132
-0.073240
-0.105356
-0.137723
-0.170406
-0.203336
-0.236262
-0.269020
-0.301524
-0.333705
-0.365476
-0.396732
-0.427439
-0.457526
-0.486182
-0.510344
-0.524407
-0.527161
-0.524571
-0.520512
-0.515283
-0.509757
-0.505590
-0.503353
-0.502928
-0.503274
0.001136
-0.000343
0.001161
0.005575
0.010903
0.016232
0.018552
0.011448
-0.009337
-0.039483
-0.071208
-0.102621
-0.134404
-0.166479
-0.198816
-0.231473
-0.264336
-0.297189
-0.329930
-0.362478
-0.394727
-0.426559
-0.457877
-0.488622
-0.518479
-0.545805
-0.564902
-0.570594
-0.568150
-0.563943
-0.558663
-0.553257
-0.549236
-0.547074
-0.546677
-0.547022
0.023356
0.022760
0.022011
0.022334
0.022878
0.019659
0.009435
-0.011104
-0.039836
-0.070674
-0.101322
-0.132402
-0.163828
-0.195570
-0.227586
-0.259915
-0.292553
-0.325347
-0.358142
-0.390861
-0.423427
-0.455726
-0.487629
-0.519021
-0.549735
-0.579072
-0.603026
-0.613160
-0.611709
-0.607374
-0.602064
-0.596770
-0.592888
-0.590797
-0.590426
-0.590770
0.021719
0.021719
0.019500
0.016079
0.011265
0.000743
-0.018005
-0.043877
-0.072519
-0.101860
-0.131958
-0.162600
-0.193635
-0.225025
-0.256722
-0.288712
-0.321027
-0.353627
-0.386364
-0.419110
-0.451806
-0.484380
-0.516719
-0.548686
-0.580130
-0.610729
-0.638422
-0.654121
-0.655256
-0.650808
-0.645481
-0.640291
-0.636546
-0.634522
-0.634175
-0.634519
0.001369
0.001753
-0.001718
-0.008640
-0.018639
-0.033893
-0.054649
-0.078963
-0.105516
-0.133842
-0.163199
-0.193280
-0.223870
-0.254875
-0.286227
-0.317878
-0.349844
-0.382142
-0.414702
-0.447386
-0.480093
-0.512765
-0.545334
-0.577697
-0.609719
-0.641190
-0.671222
-0.692880
-0.698442
-0.694239
-0.688902
-0.683822
-0.680210
-0.678248
-0.677924
-0.678267
-0.036254
-0.035758
-0.039602
-0.047668
-0.059056
-0.073927
-0.092772
-0.115091
-0.139866
-0.166787
-0.195174
-0.224547
-0.254597
-0.285153
-0.316118
-0.347423
-0.379042
-0.410987
-0.443259
-0.475780
-0.508418
-0.541090
-0.573741
-0.606300
-0.638677
-0.670727
-0.702043
-0.728848
-0.740261
-0.737670
-0.732330
-0.727360
-0.723879
-0.721976
-0.721672
-0.722015
-0.079919
-0.079459
-0.082952
-0.090370
-0.100881
-0.114551
-0.131751
-0.152253
-0.175358
-0.200783
-0.228011
-0.256511
-0.285891
-0.315910
-0.346434
-0.377363
-0.408626
-0.440210
-0.472135
-0.504385
-0.536860
-0.569462
-0.602114
-0.634738
-0.667281
-0.699659
-0.731671
-0.761766
-0.779865
-0.781119
-0.775768
-0.770909
-0.767552
-0.765705
-0.765421
-0.765764
-0.123601
-0.123172
-0.126364
-0.133212
-0.142982
-0.155663
-0.171488
-0.190406
-0.211958
-0.235876
-0.261805
-0.289264
-0.317834
-0.347216
-0.377223
-0.407718
-0.438603
-0.469829
-0.501388
-0.533295
-0.565509
-0.597947
-0.630524
-0.663145
-0.695747
-0.728275
-0.760634
-0.792275
-0.816818
-0.823862
-0.819206
-0.814473
-0.811229
-0.809435
-0.809170
-0.809512
-0.167311
-0.166909
-0.169844
-0.176193
-0.185319
-0.197157
-0.211827
-0.229376
-0.249518
-0.271995
-0.296565
-0.322865
-0.350504
-0.379141
-0.408537
-0.438531
-0.468999
-0.499849
-0.531039
-0.562576
-0.594457
-0.626639
-0.659050
-0.691598
-0.724196
-0.756772
-0.789275
-0.821518
-0.850702
-0.864626
-0.862704
-0.858046
-0.854910
-0.853165
-0.852918
-0.853261
-0.211044
-0.210666
-0.213379
-0.219291
-0.227853
-0.238957
-0.252647
-0.269011
-0.287887
-0.309033
-0.332279
-0.357364
-0.383965
-0.411748
-0.440442
-0.469856
-0.499841
-0.530279
-0.561093
-0.592258
-0.623774
-0.655630
-0.687786
-0.720170
-0.752690
-0.785255
-0.817804
-0.850259
-0.881707
-0.902777
-0.906069
-0.901634
-0.898594
-0.896897
-0.896667
-0.897009
-0.254793
-0.254437
-0.256956
-0.262481
-0.270539
-0.280998
-0.293854
-0.309192
-0.326929
-0.346869
-0.368869
-0.392744
-0.418246
-0.445088
-0.472993
-0.501742
-0.531172
-0.561150
-0.591566
-0.622354
-0.653495
-0.684988
-0.716822
-0.748953
-0.781304
-0.813792
-0.846329
-0.878849
-0.911092
-0.938165
-0.948164
-0.945230
-0.942281
-0.940629
-0.940416
-0.940758
-0.276672
-0.276326
-0.278754
-0.284096
-0.291915
-0.302069
-0.314537
-0.329394
-0.346593
-0.365959
-0.387361
-0.410643
-0.435591
-0.461947
-0.489435
-0.517831
-0.546966
-0.576701
-0.606910
-0.637506
-0.668458
-0.699765
-0.731425
-0.763409
-0.795653
-0.828081
-0.860600
-0.893134
-0.925603
-0.955155
-0.968674
-0.967027
-0.964126
-0.962496
-0.962290
-0.962632
</DataArray>
<DataArray NumberOfComponents="1" format="ascii" type ="Float32" Name="u">
0.005092
0.006139
0.007089
0.007936
0.008711
0.009497
0.010355
0.011397
0.012836
0.015048
0.018722
0.025098
0.035309
0.045915
0.052571
0.054087
0.051562
0.047235
0.043900
0.041917
0.039483
0.036983
0.035223
0.033745
0.032451
0.031291
0.030255
0.029349
0.028571
0.027921
0.027401
0.027018
0.026781
0.026693
0.026696
0.026696
0.004890
0.006042
0.007105
0.008092
0.009041
0.010018
0.011097
0.012422
0.014252
0.017085
0.021894
0.030306
0.042256
0.051671
0.055141
0.052935
0.048258
0.044206
0.041672
0.039508
0.037194
0.035148
0.033564
0.032260
0.031162
0.030222
0.029417
0.028735
0.028164
0.027700
0.027342
0.027096
0.026967
0.026935
0.026944
0.026944
0.004433
0.005691
0.006870
0.007998
0.009116
0.010292
0.011616
0.013266
0.015578
0.019238
0.025596
0.036348
0.048569
0.054493
0.053317
0.049439
0.044899
0.041733
0.039254
0.037018
0.034949
0.033242
0.031912
0.030855
0.029997
0.029289
0.028702
0.028215
0.027818
0.027504
0.027276
0.027137
0.027082
0.027085
0.027099
0.027099
0.003748
0.005118
0.006423
0.007701
0.009003
0.010401
0.012010
0.014056
0.016992
0.021766
0.030106
0.042645
0.052250
0.053095
0.049448
0.045687
0.042041
0.039121
0.036724
0.034669
0.032930
0.031557
0.030513
0.029711
0.029083
0.028579
0.028170
0.027838
0.027573
0.027373
0.027241
0.027177
0.027171
0.027193
0.027210
0.027210
0.002866
0.004362
0.005813
0.007266
0.008778
0.010436
0.012392
0.014946
0.018721
0.024972
0.035399
0.047865
0.051824
0.049249
0.045577
0.042113
0.038948
0.036388
0.034326
0.032637
0.031282
0.030245
0.029473
0.028895
0.028453
0.028104
0.027825
0.027602
0.027431
0.027312
0.027246
0.027232
0.027255
0.027287
0.027305
0.027305
0.001820
0.003467
0.005093
0.006753
0.008516
0.010490
0.012877
0.016106
0.021005
0.029013
0.041134
0.049593
0.048296
0.044922
0.041599
0.038536
0.035963
0.033937
0.032341
0.031073
0.030084
0.029338
0.028788
0.028379
0.028068
0.027824
0.027632
0.027482
0.027373
0.027308
0.027286
0.027303
0.027340
0.027376
0.027392
0.027392
0.000635
0.002468
0.004306
0.006214
0.008281
0.010651
0.013577
0.017703
0.023983
0.034072
0.045012
0.046791
0.043754
0.040667
0.037807
0.035398
0.033498
0.032034
0.030895
0.030000
0.029305
0.028778
0.028386
0.028090
0.027863
0.027685
0.027545
0.027441
0.027374
0.027343
0.027349
0.027381
0.027424
0.027458
0.027472
0.027472
-0.000661
0.001397
0.003482
0.005679
0.008131
0.011035
0.014583
0.019955
0.027972
0.038568
0.044099
0.041963
0.039416
0.036927
0.034766
0.033057
0.031747
0.030745
0.029961
0.029338
0.028847
0.028466
0.028174
0.027947
0.027770
0.027630
0.027523
0.027448
0.027406
0.027397
0.027418
0.027456
0.027497
0.027527
0.027538
0.027538
-0.002034
0.000274
0.002634
0.005167
0.008090
0.011814
0.016342
0.022957
0.031921
0.039300
0.039846
0.037760
0.035879
0.034107
0.032649
0.031515
0.030642
0.029960
0.029412
0.028964
0.028598
0.028304
0.028069
0.027882
0.027733
0.027616
0.027529
0.027472
0.027446
0.027449
0.027475
0.027512
0.027548
0.027571
0.027579
0.027579
-0.003596
-0.000875
0.001928
0.005001
0.008542
0.012973
0.018671
0.025867
0.033253
0.036554
0.036044
0.034820
0.033482
0.032307
0.031355
0.030603
0.030004
0.029515
0.029105
0.028755
0.028459
0.028212
0.028009
0.027842
0.027709
0.027605
0.027530
0.027485
0.027467
0.027475
0.027500
0.027531
0.027559
0.027575
0.027579
0.027579
-0.004849
-0.001589
0.001821
0.005558
0.009717
0.014465
0.020659
0.027195
0.032009
0.033898
0.033853
0.033039
0.032120
0.031312
0.030645
0.030099
0.029644
0.029255
0.028914
0.028614
0.028353
0.028129
0.027940
0.027784
0.027658
0.027562
0.027494
0.027453
0.027438
0.027444
0.027463
0.027485
0.027503
0.027512
0.027514
0.027514
-0.005150
-0.001467
0.002426
0.006620
0.011143
0.015966
0.021881
0.027147
0.030987
0.032706
0.032702
0.032102
0.031408
0.030780
0.030246
0.029792
0.029400
0.029052
0.028741
0.028461
0.028213
0.027997
0.027813
0.027661
0.027537
0.027442
0.027375
0.027334
0.027315
0.027313
0.027322
0.027332
0.027340
0.027342
0.027341
0.027341
-0.004758
-0.000799
0.003371
0.007794
0.012514
0.017426
0.022817
0.027643
0.031038
0.032201
0.032101
0.031569
0.030969
0.030418
0.029935
0.029514
0.029141
0.028803
0.028497
0.028219
0.027971
0.027753
0.027566
0.027409
0.027282
0.027183
0.027110
0.027062
0.027033
0.027019
0.027013
0.027010
0.027006
0.027001
0.026996
0.026996
-0.004141
0.000095
0.004478
0.009056
0.013960
0.019341
0.024388
0.028762
0.031172
0.031836
0.031614
0.031096
0.030535
0.030013
0.029546
0.029127
0.028747
0.028400
0.028082
0.027792
0.027532
0.027302
0.027104
0.026936
0.026798
0.026687
0.026602
0.026540
0.026495
0.026464
0.026441
0.026422
0.026406
0.026393
0.026385
0.026385
-0.003833
0.000875
0.005651
0.010553
0.015721
0.021237
0.025952
0.029351
0.030975
0.031291
0.030983
0.030467
0.029919
0.029398
0.028919
0.028479
0.028073
0.027698
0.027353
0.027037
0.026754
0.026502
0.026283
0.026096
0.025940
0.025812
0.025708
0.025627
0.025563
0.025511
0.025469
0.025434
0.025405
0.025384
0.025372
0.025372
-0.003960
0.001319
0.006625
0.011982
0.017384
0.022517
0.026656
0.029263
0.030332
0.030410
0.030028
0.029486
0.028914
0.028360
0.027838
0.027351
0.026898
0.026478
0.026091
0.025738
0.025421
0.025140
0.024896
0.024685
0.024507
0.024357
0.024233
0.024131
0.024046
0.023975
0.023915
0.023864
0.023824
0.023796
0.023781
0.023781
-0.004240
0.001555
0.007327
0.013011
0.018423
0.023126
0.026570
0.028471
0.029089
0.028945
0.028449
0.027826
0.027180
0.026551
0.025957
0.025401
0.024885