<VTKFile type="StructuredGrid" version="0.1" byte_order="LittleEndian">
<StructuredGrid WholeExtent="1 71 1 81 0 0">
<Piece Extent="1 36 61 81 0 0">
<PointData></PointData>
<CellData></CellData>
<Points>
<DataArray NumberOfComponents="3" format="ascii" type ="Float32" Name="mesh">
0.000000 2.625000 0.0
0.042857 2.625000 0.0
0.085714 2.625000 0.0
0.128571 2.625000 0.0
0.171429 2.625000 0.0
0.214286 2.625000 0.0
0.257143 2.625000 0.0
0.300000 2.625000 0.0
0.342857 2.625000 0.0
0.385714 2.625000 0.0
0.428571 2.625000 0.0
0.471429 2.625000 0.0
0.514286 2.625000 0.0
0.557143 2.625000 0.0
0.600000 2.625000 0.0
0.642857 2.625000 0.0
0.685714 2.625000 0.0
0.728571 2.625000 0.0
0.771429 2.625000 0.0
0.814286 2.625000 0.0
0.857143 2.625000 0.0
0.900000 2.625000 0.0
0.942857 2.625000 0.0
0.985714 2.625000 0.0
1.028571 2.625000 0.0
1.071429 2.625000 0.0
1.114286 2.625000 0.0
1.157143 2.625000 0.0
1.200000 2.625000 0.0
1.242857 2.625000 0.0
1.285714 2.625000 0.0
1.328571 2.625000 0.0
1.371429 2.625000 0.0
1.414286 2.625000 0.0
1.457143 2.625000 0.0
1.500000 2.625000 0.0
0.000000 2.668750 0.0
0.042857 2.668750 0.0
0.085714 2.668750 0.0
0.128571 2.668750 0.0
0.171429 2.668750 0.0
0.214286 2.668750 0.0
0.257143 2.668750 0.0
0.300000 2.668750 0.0
0.342857 2.668750 0.0
0.385714 2.668750 0.0
0.428571 2.668750 0.0
0.471429 2.668750 0.0
0.514286 2.668750 0.0
0.557143 2.668750 0.0
0.600000 2.668750 0.0
0.642857 2.668750 0.0
0.685714 2.668750 0.0
0.728571 2.668750 0.0
0.771429 2.668750 0.0
0.814286 2.668750 0.0
0.857143 2.668750 0.0
0.900000 2.668750 0.0
0.942857 2.668750 0.0
0.985714 2.668750 0.0
1.028571 2.668750 0.0
1.071429 2.668750 0.0
1.114286 2.668750 0.0
1.157143 2.668750 0.0
1.200000 2.668750 0.0
1.242857 2.668750 0.0
1.285714 2.668750 0.0
1.328571 2.668750 0.0
1.371429 2.668750 0.0
1.414286 2.668750 0.0
1.457143 2.668750 0.0
1.500000 2.668750 0.0
0.000000 2.712500 0.0
0.042857 2.712500 0.0
0.085714 2.712500 0.0
0.128571 2.712500 0.0
0.171429 2.712500 0.0
0.214286 2.712500 0.0
0.257143 2.712500 0.0
0.300000 2.712500 0.0
0.342857 2.712500 0.0
0.385714 2.712500 0.0
0.428571 2.712500 0.0
0.471429 2.712500 0.0
0.514286 2.712500 0.0
0.557143 2.712500 0.0
0.600000 2.712500 0.0
0.642857 2.712500 0.0
0.685714 2.712500 0.0
0.728571 2.712500 0.0
0.771429 2.712500 0.0
0.814286 2.712500 0.0
0.857143 2.712500 0.0
0.900000 2.712500 0.0
0.942857 2.712500 0.0
0.985714 2.712500 0.0
1.028571 2.712500 0.0
1.071429 2.712500 0.0
1.114286 2.712500 0.0
1.157143 2.712500 0.0
1.200000 2.712500 0.0
1.242857 2.712500 0.0
1.285714 2.712500 0.0
1.328571 2.712500 0.0
1.371429 2.712500 0.0
1.414286 2.712500 0.0
1.457143 2.712500 0.0
1.500000 2.712500 0.0
0.000000 2.756250 0.0
0.042857 2.756250 0.0
0.085714 2.756250 0.0
0.128571 2.756250 0.0
0.171429 2.756250 0.0
0.214286 2.756250 0.0
0.257143 2.756250 0.0
0.300000 2.756250 0.0
0.342857 2.756250 0.0
0.385714 2.756250 0.0
0.428571 2.756250 0.0
0.471429 2.756250 0.0
0.514286 2.756250 0.0
0.557143 2.756250 0.0
0.600000 2.756250 0.0
0.642857 2.756250 0.0
0.685714 2.756250 0.0
0.728571 2.756250 0.0
0.771429 2.756250 0.0
0.814286 2.756250 0.0
0.857143 2.756250 0.0
0.900000 2.756250 0.0
0.942857 2.756250 0.0
0.985714 2.756250 0.0
1.028571 2.756250 0.0
1.071429 2.756250 0.0
1.114286 2.756250 0.0
1.157143 2.756250 0.0
1.200000 2.756250 0.0
1.242857 2.756250 0.0
1.285714 2.756250 0.0
1.328571 2.756250 0.0
1.371429 2.756250 0.0
1.414286 2.756250 0.0
1.457143 2.756250 0.0
1.500000 2.756250 0.0
0.000000 2.800000 0.0
0.042857 2.800000 0.0
0.085714 2.800000 0.0
0.128571 2.800000 0.0
0.171429 2.800000 0.0
0.214286 2.800000 0.0
0.257143 2.800000 0.0
0.300000 2.800000 0.0
0.342857 2.800000 0.0
0.385714 2.800000 0.0
0.428571 2.800000 0.0
0.471429 2.800000 0.0
0.514286 2.800000 0.0
0.557143 2.800000 0.0
0.600000 2.800000 0.0
0.642857 2.800000 0.0
0.685714 2.800000 0.0
0.728571 2.800000 0.0
0.771429 2.800000 0.0
0.814286 2.800000 0.0
0.857143 2.800000 0.0
0.900000 2.800000 0.0
0.942857 2.800000 0.0
0.985714 2.800000 0.0
1.028571 2.800000 0.0
1.071429 2.800000 0.0
1.114286 2.800000 0.0
1.157143 2.800000 0.0
1.200000 2.800000 0.0
1.242857 2.800000 0.0
1.285714 2.800000 0.0
1.328571 2.800000 0.0
1.371429 2.800000 0.0
1.414286 2.800000 0.0
1.457143 2.800000 0.0
1.500000 2.800000 0.0
0.000000 2.843750 0.0
0.042857 2.843750 0.0
0.085714 2.843750 0.0
0.128571 2.843750 0.0
0.171429 2.843750 0.0
0.214286 2.843750 0.0
0.257143 2.843750 0.0
0.300000 2.843750 0.0
0.342857 2.843750 0.0
0.385714 2.843750 0.0
0.428571 2.843750 0.0
0.471429 2.843750 0.0
0.514286 2.843750 0.0
0.557143 2.843750 0.0
0.600000 2.843750 0.0
0.642857 2.843750 0.0
0.685714 2.843750 0.0
0.728571 2.843750 0.0
0.771429 2.843750 0.0
0.814286 2.843750 0.0
0.857143 2.843750 0.0
0.900000 2.843750 0.0
0.942857 2.843750 0.0
0.985714 2.843750 0.0
1.028571 2.843750 0.0
1.071429 2.843750 0.0
1.114286 2.843750 0.0
1.157143 2.843750 0.0
1.200000 2.843750 0.0
1.242857 2.843750 0.0
1.285714 2.843750 0.0
1.328571 2.843750 0.0
1.371429 2.843750 0.0
1.414286 2.843750 0.0
1.457143 2.843750 0.0
1.500000 2.843750 0.0
0.000000 2.887500 0.0
0.042857 2.887500 0.0
0.085714 2.887500 0.0
0.128571 2.887500 0.0
0.171429 2.887500 0.0
0.214286 2.887500 0.0
0.257143 2.887500 0.0
0.300000 2.887500 0.0
0.342857 2.887500 0.0
0.385714 2.887500 0.0
0.428571 2.887500 0.0
0.471429 2.887500 0.0
0.514286 2.887500 0.0
0.557143 2.887500 0.0
0.600000 2.887500 0.0
0.642857 2.887500 0.0
0.685714 2.887500 0.0
0.728571 2.887500 0.0
0.771429 2.887500 0.0
0.814286 2.887500 0.0
0.857143 2.887500 0.0
0.900000 2.887500 0.0
0.942857 2.887500 0.0
0.985714 2.887500 0.0
1.028571 2.887500 0.0
1.071429 2.887500 0.0
1.114286 2.887500 0.0
1.157143 2.887500 0.0
1.200000 2.887500 0.0
1.242857 2.887500 0.0
1.285714 2.887500 0.0
1.328571 2.887500 0.0
1.371429 2.887500 0.0
1.414286 2.887500 0.0
1.457143 2.887500 0.0
1.500000 2.887500 0.0
0.000000 2.931250 0.0
0.042857 2.931250 0.0
0.085714 2.931250 0.0
0.128571 2.931250 0.0
0.171429 2.931250 0.0
0.214286 2.931250 0.0
0.257143 2.931250 0.0
0.300000 2.931250 0.0
0.342857 2.931250 0.0
0.385714 2.931250 0.0
0.428571 2.931250 0.0
0.471429 2.931250 0.0
0.514286 2.931250 0.0
0.557143 2.931250 0.0
0.600000 2.931250 0.0
0.642857 2.931250 0.0
0.685714 2.931250 0.0
0.728571 2.931250 0.0
0.771429 2.931250 0.0
0.814286 2.931250 0.0
0.857143 2.931250 0.0
0.900000 2.931250 0.0
0.942857 2.931250 0.0
0.985714 2.931250 0.0
1.028571 2.931250 0.0
1.071429 2.931250 0.0
1.114286 2.931250 0.0
1.157143 2.931250 0.0
1.200000 2.931250 0.0
1.242857 2.931250 0.0
1.285714 2.931250 0.0
1.328571 2.931250 0.0
1.371429 2.931250 0.0
1.414286 2.931250 0.0
1.457143 2.931250 0.0
1.500000 2.931250 0.0
0.000000 2.975000 0.0
0.042857 2.975000 0.0
0.085714 2.975000 0.0
0.128571 2.975000 0.0
0.171429 2.975000 0.0
0.214286 2.975000 0.0
0.257143 2.975000 0.0
0.300000 2.975000 0.0
0.342857 2.975000 0.0
0.385714 2.975000 0.0
0.428571 2.975000 0.0
0.471429 2.975000 0.0
0.514286 2.975000 0.0
0.557143 2.975000 0.0
0.600000 2.975000 0.0
0.642857 2.975000 0.0
0.685714 2.975000 0.0
0.728571 2.975000 0.0
0.771429 2.975000 0.0
0.814286 2.975000 0.0
0.857143 2.975000 0.0
0.900000 2.975000 0.0
0.942857 2.975000 0.0
0.985714 2.975000 0.0
1.028571 2.975000 0.0
1.071429 2.975000 0.0
1.114286 2.975000 0.0
1.157143 2.975000 0.0
1.200000 2.975000 0.0
1.242857 2.975000 0.0
1.285714 2.975000 0.0
1.328571 2.975000 0.0
1.371429 2.975000 0.0
1.414286 2.975000 0.0
1.457143 2.975000 0.0
1.500000 2.975000 0.0
0.000000 3.018750 0.0
0.042857 3.018750 0.0
0.085714 3.018750 0.0
0.128571 3.018750 0.0
0.171429 3.018750 0.0
0.214286 3.018750 0.0
0.257143 3.018750 0.0
0.300000 3.018750 0.0
0.342857 3.018750 0.0
0.385714 3.018750 0.0
0.428571 3.018750 0.0
0.471429 3.018750 0.0
0.514286 3.018750 0.0
0.557143 3.018750 0.0
0.600000 3.018750 0.0
0.642857 3.018750 0.0
0.685714 3.018750 0.0
0.728571 3.018750 0.0
0.771429 3.018750 0.0
0.814286 3.018750 0.0
0.857143 3.018750 0.0
0.900000 3.018750 0.0
0.942857 3.018750 0.0
0.985714 3.018750 0.0
1.028571 3.018750 0.0
1.071429 3.018750 0.0
1.114286 3.018750 0.0
1.157143 3.018750 0.0
1.200000 3.018750 0.0
1.242857 3.018750 0.0
1.285714 3.018750 0.0
1.328571 3.018750 0.0
1.371429 3.018750 0.0
1.414286 3.018750 0.0
1.457143 3.018750 0.0
1.500000 3.018750 0.0
0.000000 3.062500 0.0
0.042857 3.062500 0.0
0.085714 3.062500 0.0
0.128571 3.062500 0.0
0.171429 3.062500 0.0
0.214286 3.062500 0.0
0.257143 3.062500 0.0
0.300000 3.062500 0.0
0.342857 3.062500 0.0
0.385714 3.062500 0.0
0.428571 3.062500 0.0
0.471429 3.062500 0.0
0.514286 3.062500 0.0
0.557143 3.062500 0.0
0.600000 3.062500 0.0
0.642857 3.062500 0.0
0.685714 3.062500 0.0
0.728571 3.062500 0.0
0.771429 3.062500 0.0
0.814286 3.062500 0.0
0.857143 3.062500 0.0
0.900000 3.062500 0.0
0.942857 3.062500 0.0
0.985714 3.062500 0.0
1.028571 3.062500 0.0
1.071429 3.062500 0.0
1.114286 3.062500 0.0
1.157143 3.062500 0.0
1.200000 3.062500 0.0
1.242857 3.062500 0.0
1.285714 3.062500 0.0
1.328571 3.062500 0.0
1.371429 3.062500 0.0
1.414286 3.062500 0.0
1.457143 3.062500 0.0
1.500000 3.062500 0.0
0.000000 3.106250 0.0
0.042857 3.106250 0.0
0.085714 3.106250 0.0
0.128571 3.106250 0.0
0.171429 3.106250 0.0
0.214286 3.106250 0.0
0.257143 3.106250 0.0
0.300000 3.106250 0.0
0.342857 3.106250 0.0
0.385714 3.106250 0.0
0.428571 3.106250 0.0
0.471429 3.106250 0.0
0.514286 3.106250 0.0
0.557143 3.106250 0.0
0.600000 3.106250 0.0
0.642857 3.106250 0.0
0.685714 3.106250 0.0
0.728571 3.106250 0.0
0.771429 3.106250 0.0
0.814286 3.106250 0.0
0.857143 3.106250 0.0
0.900000 3.106250 0.0
0.942857 3.106250 0.0
0.985714 3.106250 0.0
1.028571 3.106250 0.0
1.071429 3.106250 0.0
1.114286 3.106250 0.0
1.157143 3.106250 0.0
1.200000 3.106250 0.0
1.242857 3.106250 0.0
1.285714 3.106250 0.0
1.328571 3.106250 0.0
1.371429 3.106250 0.0
1.414286 3.106250 0.0
1.457143 3.106250 0.0
1.500000 3.106250 0.0
0.000000 3.150000 0.0
0.042857 3.150000 0.0
0.085714 3.150000 0.0
0.128571 3.150000 0.0
0.171429 3.150000 0.0
0.214286 3.150000 0.0
0.257143 3.150000 0.0
0.300000 3.150000 0.0
0.342857 3.150000 0.0
0.385714 3.150000 0.0
0.428571 3.150000 0.0
0.471429 3.150000 0.0
0.514286 3.150000 0.0
0.557143 3.150000 0.0
0.600000 3.150000 0.0
0.642857 3.150000 0.0
0.685714 3.150000 0.0
0.728571 3.150000 0.0
0.771429 3.150000 0.0
0.814286 3.150000 0.0
0.857143 3.150000 0.0
0.900000 3.150000 0.0
0.942857 3.150000 0.0
0.985714 3.150000 0.0
1.028571 3.150000 0.0
1.071429 3.150000 0.0
1.114286 3.150000 0.0
1.157143 3.150000 0.0
1.200000 3.150000 0.0
1.242857 3.150000 0.0
1.285714 3.150000 0.0
1.328571 3.150000 0.0
1.371429 3.150000 0.0
1.414286 3.150000 0.0
1.457143 3.150000 0.0
1.500000 3.150000 0.0
0.000000 3.193750 0.0
0.042857 3.193750 0.0
0.085714 3.193750 0.0
0.128571 3.193750 0.0
0.171429 3.193750 0.0
0.214286 3.193750 0.0
0.257143 3.193750 0.0
0.300000 3.193750 0.0
0.342857 3.193750 0.0
0.385714 3.193750 0.0
0.428571 3.193750 0.0
0.471429 3.193750 0.0
0.514286 3.193750 0.0
0.557143 3.193750 0.0
0.600000 3.193750 0.0
0.642857 3.193750 0.0
0.685714 3.193750 0.0
0.728571 3.193750 0.0
0.771429 3.193750 0.0
0.814286 3.193750 0.0
0.857143 3.193750 0.0
0.900000 3.193750 0.0
0.942857 3.193750 0.0
0.985714 3.193750 0.0
1.028571 3.193750 0.0
1.071429 3.193750 0.0
1.114286 3.193750 0.0
1.157143 3.193750 0.0
1.200000 3.193750 0.0
1.242857 3.193750 0.0
1.285714 3.193750 0.0
1.328571 3.193750 0.0
1.371429 3.193750 0.0
1.414286 3.193750 0.0
1.457143 3.193750 0.0
1.500000 3.193750 0.0
0.000000 3.237500 0.0
0.042857 3.237500 0.0
0.085714 3.237500 0.0
0.128571 3.237500 0.0
0.171429 3.237500 0.0
0.214286 3.237500 0.0
0.257143 3.237500 0.0
0.300000 3.237500 0.0
0.342857 3.237500 0.0
0.385714 3.237500 0.0
0.428571 3.237500 0.0
0.471429 3.237500 0.0
0.514286 3.237500 0.0
0.557143 3.237500 0.0
0.600000 3.237500 0.0
0.642857 3.237500 0.0
0.685714 3.237500 0.0
0.728571 3.237500 0.0
0.771429 3.237500 0.0
0.814286 3.237500 0.0
0.857143 3.237500 0.0
0.900000 3.237500 0.0
0.942857 3.237500 0.0
0.985714 3.237500 0.0
1.028571 3.237500 0.0
1.071429 3.237500 0.0
1.114286 3.237500 0.0
1.157143 3.237500 0.0
1.200000 3.237500 0.0
1.242857 3.237500 0.0
1.285714 3.237500 0.0
1.328571 3.237500 0.0
1.371429 3.237500 0.0
1.414286 3.237500 0.0
1.457143 3.237500 0.0
1.500000 3.237500 0.0
0.000000 3.281250 0.0
0.042857 3.281250 0.0
0.085714 3.281250 0.0
0.128571 3.281250 0.0
0.171429 3.281250 0.0
0.214286 3.281250 0.0
0.257143 3.281250 0.0
0.300000 3.281250 0.0
0.342857 3.281250 0.0
0.385714 3.281250 0.0
0.428571 3.281250 0.0
0.471429 3.281250 0.0
0.514286 3.281250 0.0
0.557143 3.281250 0.0
0.600000 3.281250 0.0
0.642857 3.281250 0.0
0.685714 3.281250 0.0
0.728571 3.281250 0.0
0.771429 3.281250 0.0
0.814286 3.281250 0.0
0.857143 3.281250 0.0
0.900000 3.281250 0.0
0.942857 3.281250 0.0
0.985714 3.281250 0.0
1.028571 3.281250 0.0
1.071429 3.281250 0.0
1.114286 3.281250 0.0
1.157143 3.281250 0.0
1.200000 3.281250 0.0
1.242857 3.281250 0.0
1.285714 3.281250 0.0
1.328571 3.281250 0.0
1.371429 3.281250 0.0
1.414286 3.281250 0.0
1.457143 3.281250 0.0
1.500000 3.281250 0.0
0.000000 3.325000 0.0
0.042857 3.325000 0.0
0.085714 3.325000 0.0
0.128571 3.325000 0.0
0.171429 3.325000 0.0
0.214286 3.325000 0.0
0.257143 3.325000 0.0
0.300000 3.325000 0.0
0.342857 3.325000 0.0
0.385714 3.325000 0.0
0.428571 3.325000 0.0
0.471429 3.325000 0.0
0.514286 3.325000 0.0
0.557143 3.325000 0.0
0.600000 3.325000 0.0
0.642857 3.325000 0.0
0.685714 3.325000 0.0
0.728571 3.325000 0.0
0.771429 3.325000 0.0
0.814286 3.325000 0.0
0.857143 3.325000 0.0
0.900000 3.325000 0.0
0.942857 3.325000 0.0
0.985714 3.325000 0.0
1.028571 3.325000 0.0
1.071429 3.325000 0.0
1.114286 3.325000 0.0
1.157143 3.325000 0.0
1.200000 3.325000 0.0
1.242857 3.325000 0.0
1.285714 3.325000 0.0
1.328571 3.325000 0.0
1.371429 3.325000 0.0
1.414286 3.325000 0.0
1.457143 3.325000 0.0
1.500000 3.325000 0.0
0.000000 3.368750 0.0
0.042857 3.368750 0.0
0.085714 3.368750 0.0
0.128571 3.368750 0.0
0.171429 3.368750 0.0
0.214286 3.368750 0.0
0.257143 3.368750 0.0
0.300000 3.368750 0.0
0.342857 3.368750 0.0
0.385714 3.368750 0.0
0.428571 3.368750 0.0
0.471429 3.368750 0.0
0.514286 3.368750 0.0
0.557143 3.368750 0.0
0.600000 3.368750 0.0
0.642857 3.368750 0.0
0.685714 3.368750 0.0
0.728571 3.368750 0.0
0.771429 3.368750 0.0
0.814286 3.368750 0.0
0.857143 3.368750 0.0
0.900000 3.368750 0.0
0.942857 3.368750 0.0
0.985714 3.368750 0.0
1.028571 3.368750 0.0
1.071429 3.368750 0.0
1.114286 3.368750 0.0
1.157143 3.368750 0.0
1.200000 3.368750 0.0
1.242857 3.368750 0.0
1.285714 3.368750 0.0
1.328571 3.368750 0.0
1.371429 3.368750 0.0
1.414286 3.368750 0.0
1.457143 3.368750 0.0
1.500000 3.368750 0.0
0.000000 3.412500 0.0
0.042857 3.412500 0.0
0.085714 3.412500 0.0
0.128571 3.412500 0.0
0.171429 3.412500 0.0
0.214286 3.412500 0.0
0.257143 3.412500 0.0
0.300000 3.412500 0.0
0.342857 3.412500 0.0
0.385714 3.412500 0.0
0.428571 3.412500 0.0
0.471429 3.412500 0.0
0.514286 3.412500 0.0
0.557143 3.412500 0.0
0.600000 3.412500 0.0
0.642857 3.412500 0.0
0.685714 3.412500 0.0
0.728571 3.412500 0.0
0.771429 3.412500 0.0
0.814286 3.412500 0.0
0.857143 3.412500 0.0
0.900000 3.412500 0.0
0.942857 3.412500 0.0
0.985714 3.412500 0.0
1.028571 3.412500 0.0
1.071429 3.412500 0.0
1.114286 3.412500 0.0
1.157143 3.412500 0.0
1.200000 3.412500 0.0
1.242857 3.412500 0.0
1.285714 3.412500 0.0
1.328571 3.412500 0.0
1.371429 3.412500 0.0
1.414286 3.412500 0.0
1.457143 3.412500 0.0
1.500000 3.412500 0.0
0.000000 3.456250 0.0
0.042857 3.456250 0.0
0.085714 3.456250 0.0
0.128571 3.456250 0.0
0.171429 3.456250 0.0
0.214286 3.456250 0.0
0.257143 3.456250 0.0
0.300000 3.456250 0.0
0.342857 3.456250 0.0
0.385714 3.456250 0.0
0.428571 3.456250 0.0
0.471429 3.456250 0.0
0.514286 3.456250 0.0
0.557143 3.456250 0.0
0.600000 3.456250 0.0
0.642857 3.456250 0.0
0.685714 3.456250 0.0
0.728571 3.456250 0.0
0.771429 3.456250 0.0
0.814286 3.456250 0.0
0.857143 3.456250 0.0
0.900000 3.456250 0.0
0.942857 3.456250 0.0
0.985714 3.456250 0.0
1.028571 3.456250 0.0
1.071429 3.456250 0.0
1.114286 3.456250 0.0
1.157143 3.456250 0.0
1.200000 3.456250 0.0
1.242857 3.456250 0.0
1.285714 3.456250 0.0
1.328571 3.456250 0.0
1.371429 3.456250 0.0
1.414286 3.456250 0.0
1.457143 3.456250 0.0
1.500000 3.456250 0.0
0.000000 3.500000 0.0
0.042857 3.500000 0.0
0.085714 3.500000 0.0
0.128571 3.500000 0.0
0.171429 3.500000 0.0
0.214286 3.500000 0.0
0.257143 3.500000 0.0
0.300000 3.500000 0.0
0.342857 3.500000 0.0
0.385714 3.500000 0.0
0.428571 3.500000 0.0
0.471429 3.500000 0.0
0.514286 3.500000 0.0
0.557143 3.500000 0.0
0.600000 3.500000 0.0
0.642857 3.500000 0.0
0.685714 3.500000 0.0
0.728571 3.500000 0.0
0.771429 3.500000 0.0
0.814286 3.500000 0.0
0.857143 3.500000 0.0
0.900000 3.500000 0.0
0.942857 3.500000 0.0
0.985714 3.500000 0.0
1.028571 3.500000 0.0
1.071429 3.500000 0.0
1.114286 3.500000 0.0
1.157143 3.500000 0.0
1.200000 3.500000 0.0
1.242857 3.500000 0.0
1.285714 3.500000 0.0
1.328571 3.500000 0.0
1.371429 3.500000 0.0
1.414286 3.500000 0.0
1.457143 3.500000 0.0
1.500000 3.500000 0.0
</DataArray></Points>
<PointData>
<DataArray NumberOfComponents="1" format="ascii" type ="Float32" Name="phi">
-0.121066
-0.109539
-0.110220
-0.113082
-0.116003
-0.120278
-0.124647
-0.126800
-0.127995
-0.126943
-0.121943
-0.116901
-0.112972
-0.108054
-0.101158
-0.089114
-0.072471
-0.052866
-0.031172
-0.011616
0.000891
0.004585
-0.000868
-0.020460
-0.051369
-0.084917
-0.119196
-0.154271
-0.178431
-0.181064
-0.168550
-0.151623
-0.136306
-0.123724
-0.115210
-0.110874
-0.153875
-0.153286
-0.153920
-0.156731
-0.159664
-0.163878
-0.168253
-0.170510
-0.171718
-0.170466
-0.165443
-0.160486
-0.156444
-0.151316
-0.143255
-0.129577
-0.111161
-0.089176
-0.064428
-0.038757
-0.015865
-0.001110
0.003157
-0.003429
-0.024598
-0.057932
-0.093760
-0.128409
-0.162480
-0.188866
-0.199258
-0.192396
-0.177825
-0.166221
-0.158492
-0.154534
-0.197621
-0.197034
-0.197623
-0.200383
-0.203325
-0.207477
-0.211856
-0.214216
-0.215429
-0.214038
-0.209001
-0.204082
-0.199908
-0.194376
-0.184893
-0.169170
-0.148608
-0.124749
-0.098917
-0.071969
-0.044196
-0.018933
-0.002362
0.002464
-0.006399
-0.033820
-0.069275
-0.102277
-0.135594
-0.169107
-0.199664
-0.217634
-0.217608
-0.208925
-0.201853
-0.198212
-0.241367
-0.240782
-0.241329
-0.244036
-0.246985
-0.251075
-0.255456
-0.257920
-0.259126
-0.257588
-0.252549
-0.247676
-0.243332
-0.237082
-0.225721
-0.207575
-0.184938
-0.159650
-0.132876
-0.105062
-0.076256
-0.046702
-0.019706
-0.002176
0.002471
-0.011253
-0.040709
-0.074304
-0.108255
-0.142051
-0.175771
-0.208777
-0.231312
-0.241370
-0.243976
-0.241922
-0.285112
-0.284530
-0.285037
-0.287692
-0.290643
-0.294672
-0.299053
-0.301619
-0.302808
-0.301124
-0.296093
-0.291256
-0.286661
-0.279221
-0.265412
-0.244724
-0.220286
-0.193822
-0.166072
-0.137264
-0.107524
-0.077100
-0.046363
-0.018538
-0.000646
0.002802
-0.014064
-0.046765
-0.081529
-0.115234
-0.148502
-0.180468
-0.209721
-0.233891
-0.246687
-0.249830
-0.328858
-0.328278
-0.328746
-0.331349
-0.334300
-0.338267
-0.342643
-0.345312
-0.346477
-0.344646
-0.339592
-0.334772
-0.329817
-0.320524
-0.303736
-0.280681
-0.254706
-0.227124
-0.198380
-0.168665
-0.138187
-0.107150
-0.075633
-0.043369
-0.014878
0.002776
0.003482
-0.019766
-0.054807
-0.088074
-0.120353
-0.149707
-0.175586
-0.195705
-0.207732
-0.214132
-0.372604
-0.372026
-0.372457
-0.375009
-0.377956
-0.381862
-0.386226
-0.388998
-0.390135
-0.388154
-0.383041
-0.378204
-0.372541
-0.360624
-0.340594
-0.315487
-0.288176
-0.259523
-0.229854
-0.199356
-0.168164
-0.136340
-0.103880
-0.070612
-0.037863
-0.009642
0.008186
0.004131
-0.024562
-0.060460
-0.090569
-0.116022
-0.139186
-0.155859
-0.164975
-0.170631
-0.416350
-0.415774
-0.416170
-0.418670
-0.421612
-0.425457
-0.429803
-0.432676
-0.433783
-0.431649
-0.426483
-0.421540
-0.414402
-0.399115
-0.376010
-0.349186
-0.320691
-0.291048
-0.260496
-0.229176
-0.197172
-0.164569
-0.131519
-0.098218
-0.065123
-0.032375
-0.003120
0.013730
0.004728
-0.026746
-0.056840
-0.079924
-0.101650
-0.115179
-0.121811
-0.127103
-0.460096
-0.459522
-0.459883
-0.462333
-0.465268
-0.469055
-0.473376
-0.476348
-0.477416
-0.475103
-0.469881
-0.464582
-0.454941
-0.435783
-0.410086
-0.381822
-0.352223
-0.321612
-0.290161
-0.258025
-0.225364
-0.192361
-0.159198
-0.126014
-0.092956
-0.059777
-0.026471
0.003122
0.018109
0.007998
-0.017655
-0.042946
-0.063394
-0.073641
-0.078611
-0.083722
-0.503842
-0.503270
-0.503598
-0.505998
-0.508923
-0.512655
-0.516947
-0.520012
-0.521036
-0.518547
-0.513223
-0.506842
-0.493642
-0.470650
-0.442919
-0.413378
-0.382703
-0.351143
-0.318903
-0.286196
-0.253212
-0.220095
-0.186935
-0.153803
-0.120733
-0.087671
-0.054960
-0.021938
0.008065
0.022837
0.016321
-0.001437
-0.018589
-0.028902
-0.035135
-0.040134
-0.547588
-0.547018
-0.547314
-0.549665
-0.552578
-0.556256
-0.560514
-0.563669
-0.564653
-0.562001
-0.556409
-0.547725
-0.530140
-0.503860
-0.474488
-0.443764
-0.412117
-0.379805
-0.347061
-0.314076
-0.280980
-0.247851
-0.214744
-0.181709
-0.148777
-0.116064
-0.083716
-0.051761
-0.018643
0.011119
0.026756
0.026814
0.019460
0.011218
0.004825
0.001136
-0.591334
-0.590765
-0.591032
-0.593334
-0.596232
-0.599856
-0.604076
-0.607318
-0.608280
-0.605419
-0.599040
-0.586674
-0.564338
-0.535518
-0.504770
-0.473050
-0.440692
-0.407936
-0.374960
-0.341885
-0.308779
-0.275692
-0.242693
-0.209837
-0.177189
-0.144881
-0.112960
-0.081477
-0.050118
-0.018022
0.009746
0.025279
0.029529
0.027666
0.024771
0.023356
-0.635080
-0.634512
-0.634752
-0.637006
-0.639885
-0.643456
-0.647635
-0.650958
-0.651921
-0.648710
-0.640295
-0.623033
-0.596374
-0.565752
-0.533967
-0.501567
-0.468806
-0.435848
-0.402798
-0.369727
-0.336674
-0.303692
-0.270878
-0.238302
-0.206036
-0.174170
-0.142730
-0.111791
-0.081499
-0.052127
-0.023373
0.000627
0.014331
0.019333
0.020924
0.021719
-0.678826
-0.678260
-0.678472
-0.680679
-0.683537
-0.687056
-0.691188
-0.694587
-0.695547
-0.691477
-0.679166
-0.656438
-0.626672
-0.594888
-0.562450
-0.529679
-0.496739
-0.463717
-0.430670
-0.397659
-0.364735
-0.331948
-0.299401
-0.267189
-0.235369
-0.203988
-0.173114
-0.142925
-0.113744
-0.085989
-0.060278
-0.036991
-0.018864
-0.007837
-0.001664
0.001369
-0.722572
-0.722007
-0.722194
-0.724353
-0.727190
-0.730657
-0.734736
-0.738204
-0.739060
-0.732741
-0.714865
-0.687323
-0.655799
-0.623354
-0.590574
-0.557641
-0.524639
-0.491615
-0.458628
-0.425751
-0.393046
-0.360549
-0.328349
-0.296562
-0.265243
-0.234428
-0.204263
-0.175033
-0.147128
-0.120958
-0.097061
-0.076439
-0.059984
-0.047938
-0.040169
-0.036254
-0.766318
-0.765754
-0.765915
-0.768029
-0.770844
-0.774259
-0.778285
-0.781826
-0.781873
-0.771139
-0.747263
-0.716632
-0.684267
-0.651497
-0.618574
-0.585586
-0.552579
-0.519612
-0.486754
-0.454087
-0.421681
-0.389560
-0.357786
-0.326478
-0.295722
-0.265593
-0.236310
-0.208212
-0.181685
-0.157106
-0.135011
-0.116280
-0.101480
-0.090618
-0.083534
-0.079919
-0.810064
-0.809500
-0.809637
-0.811707
-0.814499
-0.817864
-0.821836
-0.825422
-0.822887
-0.805904
-0.777238
-0.745160
-0.712429
-0.679528
-0.646562
-0.613580
-0.580636
-0.547803
-0.515150
-0.482761
-0.450713
-0.419033
-0.387759
-0.357001
-0.326894
-0.297588
-0.269350
-0.242503
-0.217384
-0.194359
-0.173958
-0.156876
-0.143412
-0.133483
-0.126959
-0.123601
-0.853811
-0.853247
-0.853360
-0.855386
-0.858154
-0.861474
-0.865392
-0.868408
-0.860939
-0.837345
-0.805992
-0.773353
-0.740484
-0.707549
-0.674598
-0.641690
-0.608894
-0.576278
-0.543904
-0.511854
-0.480215
-0.449024
-0.418315
-0.388196
-0.358848
-0.330493
-0.303404
-0.277849
-0.254109
-0.232557
-0.213701
-0.198030
-0.185659
-0.176500
-0.170447
-0.167311
-0.897557
-0.896993
-0.897084
-0.899067
-0.901810
-0.905086
-0.908984
-0.909552
-0.895377
-0.866660
-0.834268
-0.801440
-0.768534
-0.735617
-0.702747
-0.669996
-0.637430
-0.605102
-0.573073
-0.541426
-0.510251
-0.479596
-0.449513
-0.420129
-0.391656
-0.364354
-0.338452
-0.314155
-0.291731
-0.271553
-0.254076
-0.239605
-0.228148
-0.219637
-0.213986
-0.211044
-0.941304
-0.940740
-0.940809
-0.942750
-0.945466
-0.948703
-0.952398
-0.948118
-0.926723
-0.895151
-0.862401
-0.829527
-0.796640
-0.763802
-0.731094
-0.698581
-0.666313
-0.634328
-0.602694
-0.571508
-0.540867
-0.510817
-0.481423
-0.452853
-0.425341
-0.399132
-0.374397
-0.351298
-0.330117
-0.311209
-0.294946
-0.281497
-0.270818
-0.262865
-0.257564
-0.254793
-0.963177
-0.962613
-0.962672
-0.964592
-0.967294
-0.970515
-0.973999
-0.966743
-0.941772
-0.909312
-0.876458
-0.843577
-0.810714
-0.777936
-0.745329
-0.712953
-0.680849
-0.649048
-0.617621
-0.586678
-0.556323
-0.526597
-0.497565
-0.469418
-0.442401
-0.416736
-0.392570
-0.370053
-0.349475
-0.331178
-0.315484
-0.302508
-0.292191
-0.284499
-0.279362
-0.276672
</DataArray>
<DataArray NumberOfComponents="1" format="ascii" type ="Float32" Name="u">
0.000000
-0.023917
-0.023859
-0.023851
-0.023969
-0.024191
-0.024455
-0.024720
-0.024979
-0.025248
-0.025553
-0.025939
-0.026478
-0.027289
-0.028560
-0.030862
-0.033554
-0.036236
-0.041202
-0.046918
-0.054856
-0.066036
-0.076346
-0.062622
-0.030686
-0.018391
-0.013737
-0.009904
-0.006805
-0.004265
-0.002119
-0.000273
0.001345
0.002738
0.003962
0.005091
-0.024150
-0.024150
-0.024100
-0.024052
-0.024075
-0.024184
-0.024343
-0.024507
-0.024655
-0.024791
-0.024931
-0.025107
-0.025372
-0.025817
-0.026551
-0.027828
-0.029563
-0.031325
-0.033775
-0.036996
-0.042387
-0.051481
-0.067383
-0.076696
-0.051572
-0.023303
-0.016091
-0.011866
-0.008369
-0.005515
-0.003124
-0.001073
0.000711
0.002269
0.003642
0.004890
-0.024372
-0.024372
-0.024329
-0.024262
-0.024228
-0.024261
-0.024351
-0.024463
-0.024567
-0.024653
-0.024728
-0.024808
-0.024927
-0.025149
-0.025567
-0.026322
-0.027450
-0.028708
-0.030127
-0.031846
-0.034104
-0.038251
-0.048519
-0.068200
-0.070452
-0.038656
-0.019520
-0.014089
-0.010193
-0.006987
-0.004332
-0.002079
-0.000132
0.001569
0.003073
0.004433
-0.024598
-0.024598
-0.024559
-0.024485
-0.024417
-0.024398
-0.024436
-0.024513
-0.024599
-0.024675
-0.024737
-0.024792
-0.024862
-0.024988
-0.025240
-0.025713
-0.026461
-0.027387
-0.028415
-0.029607
-0.030977
-0.032334
-0.035334
-0.047337
-0.066434
-0.057770
-0.028617
-0.017087
-0.012309
-0.008703
-0.005760
-0.003296
-0.001186
0.000651
0.002276
0.003748
-0.024822
-0.024822
-0.024788
-0.024715
-0.024631
-0.024576
-0.024572
-0.024616
-0.024688
-0.024765
-0.024837
-0.024905
-0.024981
-0.025090
-0.025278
-0.025610
-0.026135
-0.026831
-0.027639
-0.028571
-0.029682
-0.030769
-0.031317
-0.034127
-0.047884
-0.060664
-0.043108
-0.022424
-0.014940
-0.010704
-0.007422
-0.004728
-0.002448
-0.000473
0.001275
0.002866
-0.025034
-0.025034
-0.025007
-0.024942
-0.024856
-0.024780
-0.024743
-0.024755
-0.024808
-0.024884
-0.024970
-0.025061
-0.025164
-0.025292
-0.025473
-0.025749
-0.026158
-0.026705
-0.027362
-0.028119
-0.029016
-0.030028
-0.030700
-0.030804
-0.034950
-0.048509
-0.051011
-0.031561
-0.018630
-0.013072
-0.009337
-0.006378
-0.003916
-0.001792
0.000091
0.001820
-0.025219
-0.025219
-0.025200
-0.025149
-0.025071
-0.024990
-0.024934
-0.024919
-0.024950
-0.025017
-0.025109
-0.025220
-0.025349
-0.025504
-0.025701
-0.025965
-0.026321
-0.026779
-0.027330
-0.027963
-0.028694
-0.029550
-0.030375
-0.030690
-0.031186
-0.037099
-0.046917
-0.039938
-0.024321
-0.015981
-0.011573
-0.008295
-0.005614
-0.003306
-0.001260
0.000635
-0.025368
-0.025368
-0.025356
-0.025320
-0.025260
-0.025187
-0.025125
-0.025093
-0.025104
-0.025158
-0.025247
-0.025365
-0.025511
-0.025688
-0.025903
-0.026170
-0.026504
-0.026912
-0.027393
-0.027938
-0.028553
-0.029263
-0.030049
-0.030682
-0.030973
-0.032501
-0.038922
-0.041720
-0.030931
-0.020175
-0.014277
-0.010531
-0.007611
-0.005037
-0.002771
-0.000661
-0.025472
-0.025472
-0.025466
-0.025445
-0.025404
-0.025348
-0.025293
-0.025257
-0.025255
-0.025295
-0.025375
-0.025492
-0.025644
-0.025830
-0.026055
-0.026326
-0.026650
-0.027032
-0.027468
-0.027954
-0.028490
-0.029094
-0.029784
-0.030494
-0.031032
-0.031604
-0.033942
-0.038538
-0.035107
-0.025330
-0.017934
-0.013398
-0.009990
-0.006875
-0.004372
-0.002034
-0.025518
-0.025518
-0.025517
-0.025508
-0.025485
-0.025450
-0.025411
-0.025382
-0.025378
-0.025409
-0.025480
-0.025591
-0.025740
-0.025927
-0.026154
-0.026424
-0.026741
-0.027105
-0.027513
-0.027961
-0.028448
-0.028982
-0.029583
-0.030245
-0.030878
-0.031396
-0.032258
-0.034859
-0.035518
-0.029336
-0.021927
-0.016591
-0.012636
-0.009221
-0.006327
-0.003596
-0.025486
-0.025486
-0.025488
-0.025488
-0.025482
-0.025468
-0.025449
-0.025435
-0.025438
-0.025468
-0.025534
-0.025639
-0.025783
-0.025967
-0.026190
-0.026456
-0.026765
-0.027116
-0.027507
-0.027933
-0.028389
-0.028880
-0.029417
-0.030010
-0.030633
-0.031215
-0.031822
-0.032898
-0.033871
-0.030896
-0.024651
-0.019043
-0.014802
-0.011442
-0.008091
-0.004849
-0.025336
-0.025336
-0.025341
-0.025349
-0.025357
-0.025362
-0.025365
-0.025371
-0.025389
-0.025428
-0.025496
-0.025599
-0.025740
-0.025920
-0.026141
-0.026402
-0.026704
-0.027048
-0.027429
-0.027842
-0.028283
-0.028750
-0.029250
-0.029791
-0.030371
-0.030962
-0.031555
-0.032221
-0.032582
-0.030811
-0.025971
-0.020414
-0.016080
-0.012426
-0.008770
-0.005150
-0.025008
-0.025008
-0.025016
-0.025030
-0.025050
-0.025073
-0.025098
-0.025127
-0.025165
-0.025220
-0.025299
-0.025408
-0.025552
-0.025734
-0.025955
-0.026215
-0.026517
-0.026858
-0.027237
-0.027647
-0.028085
-0.028547
-0.029032
-0.029547
-0.030094
-0.030666
-0.031248
-0.031827
-0.032118
-0.030763
-0.026771
-0.021409
-0.016791
-0.012610
-0.008654
-0.004758
-0.024411
-0.024411
-0.024421
-0.024443
-0.024474
-0.024514
-0.024560
-0.024612
-0.024674
-0.024750
-0.024846
-0.024970
-0.025124
-0.025315
-0.025543
-0.025811
-0.026119
-0.026468
-0.026854
-0.027275
-0.027723
-0.028196
-0.028689
-0.029204
-0.029743
-0.030303
-0.030872
-0.031420
-0.031759
-0.031001
-0.027790
-0.022796
-0.017379
-0.012677
-0.008346
-0.004141
-0.023418
-0.023418
-0.023431
-0.023459
-0.023501
-0.023556
-0.023621
-0.023696
-0.023782
-0.023882
-0.024001
-0.024144
-0.024317
-0.024523
-0.024766
-0.025049
-0.025374
-0.025739
-0.026145
-0.026589
-0.027064
-0.027567
-0.028091
-0.028635
-0.029196
-0.029771
-0.030346
-0.030889
-0.031272
-0.030935
-0.028728
-0.024293
-0.018585
-0.013374