<VTKFile type="StructuredGrid" version="0.1" byte_order="LittleEndian">
<StructuredGrid WholeExtent="1 71 1 81 0 0">
<Piece Extent="36 71 41 61 0 0">
<PointData></PointData>
<CellData></CellData>
<Points>
<DataArray NumberOfComponents="3" format="ascii" type ="Float32" Name="mesh">
1.500000 1.750000 0.0
1.542857 1.750000 0.0
1.585714 1.750000 0.0
1.628571 1.750000 0.0
1.671429 1.750000 0.0
1.714286 1.750000 0.0
1.757143 1.750000 0.0
1.800000 1.750000 0.0
1.842857 1.750000 0.0
1.885714 1.750000 0.0
1.928571 1.750000 0.0
1.971429 1.750000 0.0
2.014286 1.750000 0.0
2.057143 1.750000 0.0
2.100000 1.750000 0.0
2.142857 1.750000 0.0
2.185714 1.750000 0.0
2.228571 1.750000 0.0
2.271429 1.750000 0.0
2.314286 1.750000 0.0
2.357143 1.750000 0.0
2.400000 1.750000 0.0
2.442857 1.750000 0.0
2.485714 1.750000 0.0
2.528571 1.750000 0.0
2.571429 1.750000 0.0
2.614286 1.750000 0.0
2.657143 1.750000 0.0
2.700000 1.750000 0.0
2.742857 1.750000 0.0
2.785714 1.750000 0.0
2.828571 1.750000 0.0
2.871429 1.750000 0.0
2.914286 1.750000 0.0
2.957143 1.750000 0.0
3.000000 1.750000 0.0
1.500000 1.793750 0.0
1.542857 1.793750 0.0
1.585714 1.793750 0.0
1.628571 1.793750 0.0
1.671429 1.793750 0.0
1.714286 1.793750 0.0
1.757143 1.793750 0.0
1.800000 1.793750 0.0
1.842857 1.793750 0.0
1.885714 1.793750 0.0
1.928571 1.793750 0.0
1.971429 1.793750 0.0
2.014286 1.793750 0.0
2.057143 1.793750 0.0
2.100000 1.793750 0.0
2.142857 1.793750 0.0
2.185714 1.793750 0.0
2.228571 1.793750 0.0
2.271429 1.793750 0.0
2.314286 1.793750 0.0
2.357143 1.793750 0.0
2.400000 1.793750 0.0
2.442857 1.793750 0.0
2.485714 1.793750 0.0
2.528571 1.793750 0.0
2.571429 1.793750 0.0
2.614286 1.793750 0.0
2.657143 1.793750 0.0
2.700000 1.793750 0.0
2.742857 1.793750 0.0
2.785714 1.793750 0.0
2.828571 1.793750 0.0
2.871429 1.793750 0.0
2.914286 1.793750 0.0
2.957143 1.793750 0.0
3.000000 1.793750 0.0
1.500000 1.837500 0.0
1.542857 1.837500 0.0
1.585714 1.837500 0.0
1.628571 1.837500 0.0
1.671429 1.837500 0.0
1.714286 1.837500 0.0
1.757143 1.837500 0.0
1.800000 1.837500 0.0
1.842857 1.837500 0.0
1.885714 1.837500 0.0
1.928571 1.837500 0.0
1.971429 1.837500 0.0
2.014286 1.837500 0.0
2.057143 1.837500 0.0
2.100000 1.837500 0.0
2.142857 1.837500 0.0
2.185714 1.837500 0.0
2.228571 1.837500 0.0
2.271429 1.837500 0.0
2.314286 1.837500 0.0
2.357143 1.837500 0.0
2.400000 1.837500 0.0
2.442857 1.837500 0.0
2.485714 1.837500 0.0
2.528571 1.837500 0.0
2.571429 1.837500 0.0
2.614286 1.837500 0.0
2.657143 1.837500 0.0
2.700000 1.837500 0.0
2.742857 1.837500 0.0
2.785714 1.837500 0.0
2.828571 1.837500 0.0
2.871429 1.837500 0.0
2.914286 1.837500 0.0
2.957143 1.837500 0.0
3.000000 1.837500 0.0
1.500000 1.881250 0.0
1.542857 1.881250 0.0
1.585714 1.881250 0.0
1.628571 1.881250 0.0
1.671429 1.881250 0.0
1.714286 1.881250 0.0
1.757143 1.881250 0.0
1.800000 1.881250 0.0
1.842857 1.881250 0.0
1.885714 1.881250 0.0
1.928571 1.881250 0.0
1.971429 1.881250 0.0
2.014286 1.881250 0.0
2.057143 1.881250 0.0
2.100000 1.881250 0.0
2.142857 1.881250 0.0
2.185714 1.881250 0.0
2.228571 1.881250 0.0
2.271429 1.881250 0.0
2.314286 1.881250 0.0
2.357143 1.881250 0.0
2.400000 1.881250 0.0
2.442857 1.881250 0.0
2.485714 1.881250 0.0
2.528571 1.881250 0.0
2.571429 1.881250 0.0
2.614286 1.881250 0.0
2.657143 1.881250 0.0
2.700000 1.881250 0.0
2.742857 1.881250 0.0
2.785714 1.881250 0.0
2.828571 1.881250 0.0
2.871429 1.881250 0.0
2.914286 1.881250 0.0
2.957143 1.881250 0.0
3.000000 1.881250 0.0
1.500000 1.925000 0.0
1.542857 1.925000 0.0
1.585714 1.925000 0.0
1.628571 1.925000 0.0
1.671429 1.925000 0.0
1.714286 1.925000 0.0
1.757143 1.925000 0.0
1.800000 1.925000 0.0
1.842857 1.925000 0.0
1.885714 1.925000 0.0
1.928571 1.925000 0.0
1.971429 1.925000 0.0
2.014286 1.925000 0.0
2.057143 1.925000 0.0
2.100000 1.925000 0.0
2.142857 1.925000 0.0
2.185714 1.925000 0.0
2.228571 1.925000 0.0
2.271429 1.925000 0.0
2.314286 1.925000 0.0
2.357143 1.925000 0.0
2.400000 1.925000 0.0
2.442857 1.925000 0.0
2.485714 1.925000 0.0
2.528571 1.925000 0.0
2.571429 1.925000 0.0
2.614286 1.925000 0.0
2.657143 1.925000 0.0
2.700000 1.925000 0.0
2.742857 1.925000 0.0
2.785714 1.925000 0.0
2.828571 1.925000 0.0
2.871429 1.925000 0.0
2.914286 1.925000 0.0
2.957143 1.925000 0.0
3.000000 1.925000 0.0
1.500000 1.968750 0.0
1.542857 1.968750 0.0
1.585714 1.968750 0.0
1.628571 1.968750 0.0
1.671429 1.968750 0.0
1.714286 1.968750 0.0
1.757143 1.968750 0.0
1.800000 1.968750 0.0
1.842857 1.968750 0.0
1.885714 1.968750 0.0
1.928571 1.968750 0.0
1.971429 1.968750 0.0
2.014286 1.968750 0.0
2.057143 1.968750 0.0
2.100000 1.968750 0.0
2.142857 1.968750 0.0
2.185714 1.968750 0.0
2.228571 1.968750 0.0
2.271429 1.968750 0.0
2.314286 1.968750 0.0
2.357143 1.968750 0.0
2.400000 1.968750 0.0
2.442857 1.968750 0.0
2.485714 1.968750 0.0
2.528571 1.968750 0.0
2.571429 1.968750 0.0
2.614286 1.968750 0.0
2.657143 1.968750 0.0
2.700000 1.968750 0.0
2.742857 1.968750 0.0
2.785714 1.968750 0.0
2.828571 1.968750 0.0
2.871429 1.968750 0.0
2.914286 1.968750 0.0
2.957143 1.968750 0.0
3.000000 1.968750 0.0
1.500000 2.012500 0.0
1.542857 2.012500 0.0
1.585714 2.012500 0.0
1.628571 2.012500 0.0
1.671429 2.012500 0.0
1.714286 2.012500 0.0
1.757143 2.012500 0.0
1.800000 2.012500 0.0
1.842857 2.012500 0.0
1.885714 2.012500 0.0
1.928571 2.012500 0.0
1.971429 2.012500 0.0
2.014286 2.012500 0.0
2.057143 2.012500 0.0
2.100000 2.012500 0.0
2.142857 2.012500 0.0
2.185714 2.012500 0.0
2.228571 2.012500 0.0
2.271429 2.012500 0.0
2.314286 2.012500 0.0
2.357143 2.012500 0.0
2.400000 2.012500 0.0
2.442857 2.012500 0.0
2.485714 2.012500 0.0
2.528571 2.012500 0.0
2.571429 2.012500 0.0
2.614286 2.012500 0.0
2.657143 2.012500 0.0
2.700000 2.012500 0.0
2.742857 2.012500 0.0
2.785714 2.012500 0.0
2.828571 2.012500 0.0
2.871429 2.012500 0.0
2.914286 2.012500 0.0
2.957143 2.012500 0.0
3.000000 2.012500 0.0
1.500000 2.056250 0.0
1.542857 2.056250 0.0
1.585714 2.056250 0.0
1.628571 2.056250 0.0
1.671429 2.056250 0.0
1.714286 2.056250 0.0
1.757143 2.056250 0.0
1.800000 2.056250 0.0
1.842857 2.056250 0.0
1.885714 2.056250 0.0
1.928571 2.056250 0.0
1.971429 2.056250 0.0
2.014286 2.056250 0.0
2.057143 2.056250 0.0
2.100000 2.056250 0.0
2.142857 2.056250 0.0
2.185714 2.056250 0.0
2.228571 2.056250 0.0
2.271429 2.056250 0.0
2.314286 2.056250 0.0
2.357143 2.056250 0.0
2.400000 2.056250 0.0
2.442857 2.056250 0.0
2.485714 2.056250 0.0
2.528571 2.056250 0.0
2.571429 2.056250 0.0
2.614286 2.056250 0.0
2.657143 2.056250 0.0
2.700000 2.056250 0.0
2.742857 2.056250 0.0
2.785714 2.056250 0.0
2.828571 2.056250 0.0
2.871429 2.056250 0.0
2.914286 2.056250 0.0
2.957143 2.056250 0.0
3.000000 2.056250 0.0
1.500000 2.100000 0.0
1.542857 2.100000 0.0
1.585714 2.100000 0.0
1.628571 2.100000 0.0
1.671429 2.100000 0.0
1.714286 2.100000 0.0
1.757143 2.100000 0.0
1.800000 2.100000 0.0
1.842857 2.100000 0.0
1.885714 2.100000 0.0
1.928571 2.100000 0.0
1.971429 2.100000 0.0
2.014286 2.100000 0.0
2.057143 2.100000 0.0
2.100000 2.100000 0.0
2.142857 2.100000 0.0
2.185714 2.100000 0.0
2.228571 2.100000 0.0
2.271429 2.100000 0.0
2.314286 2.100000 0.0
2.357143 2.100000 0.0
2.400000 2.100000 0.0
2.442857 2.100000 0.0
2.485714 2.100000 0.0
2.528571 2.100000 0.0
2.571429 2.100000 0.0
2.614286 2.100000 0.0
2.657143 2.100000 0.0
2.700000 2.100000 0.0
2.742857 2.100000 0.0
2.785714 2.100000 0.0
2.828571 2.100000 0.0
2.871429 2.100000 0.0
2.914286 2.100000 0.0
2.957143 2.100000 0.0
3.000000 2.100000 0.0
1.500000 2.143750 0.0
1.542857 2.143750 0.0
1.585714 2.143750 0.0
1.628571 2.143750 0.0
1.671429 2.143750 0.0
1.714286 2.143750 0.0
1.757143 2.143750 0.0
1.800000 2.143750 0.0
1.842857 2.143750 0.0
1.885714 2.143750 0.0
1.928571 2.143750 0.0
1.971429 2.143750 0.0
2.014286 2.143750 0.0
2.057143 2.143750 0.0
2.100000 2.143750 0.0
2.142857 2.143750 0.0
2.185714 2.143750 0.0
2.228571 2.143750 0.0
2.271429 2.143750 0.0
2.314286 2.143750 0.0
2.357143 2.143750 0.0
2.400000 2.143750 0.0
2.442857 2.143750 0.0
2.485714 2.143750 0.0
2.528571 2.143750 0.0
2.571429 2.143750 0.0
2.614286 2.143750 0.0
2.657143 2.143750 0.0
2.700000 2.143750 0.0
2.742857 2.143750 0.0
2.785714 2.143750 0.0
2.828571 2.143750 0.0
2.871429 2.143750 0.0
2.914286 2.143750 0.0
2.957143 2.143750 0.0
3.000000 2.143750 0.0
1.500000 2.187500 0.0
1.542857 2.187500 0.0
1.585714 2.187500 0.0
1.628571 2.187500 0.0
1.671429 2.187500 0.0
1.714286 2.187500 0.0
1.757143 2.187500 0.0
1.800000 2.187500 0.0
1.842857 2.187500 0.0
1.885714 2.187500 0.0
1.928571 2.187500 0.0
1.971429 2.187500 0.0
2.014286 2.187500 0.0
2.057143 2.187500 0.0
2.100000 2.187500 0.0
2.142857 2.187500 0.0
2.185714 2.187500 0.0
2.228571 2.187500 0.0
2.271429 2.187500 0.0
2.314286 2.187500 0.0
2.357143 2.187500 0.0
2.400000 2.187500 0.0
2.442857 2.187500 0.0
2.485714 2.187500 0.0
2.528571 2.187500 0.0
2.571429 2.187500 0.0
2.614286 2.187500 0.0
2.657143 2.187500 0.0
2.700000 2.187500 0.0
2.742857 2.187500 0.0
2.785714 2.187500 0.0
2.828571 2.187500 0.0
2.871429 2.187500 0.0
2.914286 2.187500 0.0
2.957143 2.187500 0.0
3.000000 2.187500 0.0
1.500000 2.231250 0.0
1.542857 2.231250 0.0
1.585714 2.231250 0.0
1.628571 2.231250 0.0
1.671429 2.231250 0.0
1.714286 2.231250 0.0
1.757143 2.231250 0.0
1.800000 2.231250 0.0
1.842857 2.231250 0.0
1.885714 2.231250 0.0
1.928571 2.231250 0.0
1.971429 2.231250 0.0
2.014286 2.231250 0.0
2.057143 2.231250 0.0
2.100000 2.231250 0.0
2.142857 2.231250 0.0
2.185714 2.231250 0.0
2.228571 2.231250 0.0
2.271429 2.231250 0.0
2.314286 2.231250 0.0
2.357143 2.231250 0.0
2.400000 2.231250 0.0
2.442857 2.231250 0.0
2.485714 2.231250 0.0
2.528571 2.231250 0.0
2.571429 2.231250 0.0
2.614286 2.231250 0.0
2.657143 2.231250 0.0
2.700000 2.231250 0.0
2.742857 2.231250 0.0
2.785714 2.231250 0.0
2.828571 2.231250 0.0
2.871429 2.231250 0.0
2.914286 2.231250 0.0
2.957143 2.231250 0.0
3.000000 2.231250 0.0
1.500000 2.275000 0.0
1.542857 2.275000 0.0
1.585714 2.275000 0.0
1.628571 2.275000 0.0
1.671429 2.275000 0.0
1.714286 2.275000 0.0
1.757143 2.275000 0.0
1.800000 2.275000 0.0
1.842857 2.275000 0.0
1.885714 2.275000 0.0
1.928571 2.275000 0.0
1.971429 2.275000 0.0
2.014286 2.275000 0.0
2.057143 2.275000 0.0
2.100000 2.275000 0.0
2.142857 2.275000 0.0
2.185714 2.275000 0.0
2.228571 2.275000 0.0
2.271429 2.275000 0.0
2.314286 2.275000 0.0
2.357143 2.275000 0.0
2.400000 2.275000 0.0
2.442857 2.275000 0.0
2.485714 2.275000 0.0
2.528571 2.275000 0.0
2.571429 2.275000 0.0
2.614286 2.275000 0.0
2.657143 2.275000 0.0
2.700000 2.275000 0.0
2.742857 2.275000 0.0
2.785714 2.275000 0.0
2.828571 2.275000 0.0
2.871429 2.275000 0.0
2.914286 2.275000 0.0
2.957143 2.275000 0.0
3.000000 2.275000 0.0
1.500000 2.318750 0.0
1.542857 2.318750 0.0
1.585714 2.318750 0.0
1.628571 2.318750 0.0
1.671429 2.318750 0.0
1.714286 2.318750 0.0
1.757143 2.318750 0.0
1.800000 2.318750 0.0
1.842857 2.318750 0.0
1.885714 2.318750 0.0
1.928571 2.318750 0.0
1.971429 2.318750 0.0
2.014286 2.318750 0.0
2.057143 2.318750 0.0
2.100000 2.318750 0.0
2.142857 2.318750 0.0
2.185714 2.318750 0.0
2.228571 2.318750 0.0
2.271429 2.318750 0.0
2.314286 2.318750 0.0
2.357143 2.318750 0.0
2.400000 2.318750 0.0
2.442857 2.318750 0.0
2.485714 2.318750 0.0
2.528571 2.318750 0.0
2.571429 2.318750 0.0
2.614286 2.318750 0.0
2.657143 2.318750 0.0
2.700000 2.318750 0.0
2.742857 2.318750 0.0
2.785714 2.318750 0.0
2.828571 2.318750 0.0
2.871429 2.318750 0.0
2.914286 2.318750 0.0
2.957143 2.318750 0.0
3.000000 2.318750 0.0
1.500000 2.362500 0.0
1.542857 2.362500 0.0
1.585714 2.362500 0.0
1.628571 2.362500 0.0
1.671429 2.362500 0.0
1.714286 2.362500 0.0
1.757143 2.362500 0.0
1.800000 2.362500 0.0
1.842857 2.362500 0.0
1.885714 2.362500 0.0
1.928571 2.362500 0.0
1.971429 2.362500 0.0
2.014286 2.362500 0.0
2.057143 2.362500 0.0
2.100000 2.362500 0.0
2.142857 2.362500 0.0
2.185714 2.362500 0.0
2.228571 2.362500 0.0
2.271429 2.362500 0.0
2.314286 2.362500 0.0
2.357143 2.362500 0.0
2.400000 2.362500 0.0
2.442857 2.362500 0.0
2.485714 2.362500 0.0
2.528571 2.362500 0.0
2.571429 2.362500 0.0
2.614286 2.362500 0.0
2.657143 2.362500 0.0
2.700000 2.362500 0.0
2.742857 2.362500 0.0
2.785714 2.362500 0.0
2.828571 2.362500 0.0
2.871429 2.362500 0.0
2.914286 2.362500 0.0
2.957143 2.362500 0.0
3.000000 2.362500 0.0
1.500000 2.406250 0.0
1.542857 2.406250 0.0
1.585714 2.406250 0.0
1.628571 2.406250 0.0
1.671429 2.406250 0.0
1.714286 2.406250 0.0
1.757143 2.406250 0.0
1.800000 2.406250 0.0
1.842857 2.406250 0.0
1.885714 2.406250 0.0
1.928571 2.406250 0.0
1.971429 2.406250 0.0
2.014286 2.406250 0.0
2.057143 2.406250 0.0
2.100000 2.406250 0.0
2.142857 2.406250 0.0
2.185714 2.406250 0.0
2.228571 2.406250 0.0
2.271429 2.406250 0.0
2.314286 2.406250 0.0
2.357143 2.406250 0.0
2.400000 2.406250 0.0
2.442857 2.406250 0.0
2.485714 2.406250 0.0
2.528571 2.406250 0.0
2.571429 2.406250 0.0
2.614286 2.406250 0.0
2.657143 2.406250 0.0
2.700000 2.406250 0.0
2.742857 2.406250 0.0
2.785714 2.406250 0.0
2.828571 2.406250 0.0
2.871429 2.406250 0.0
2.914286 2.406250 0.0
2.957143 2.406250 0.0
3.000000 2.406250 0.0
1.500000 2.450000 0.0
1.542857 2.450000 0.0
1.585714 2.450000 0.0
1.628571 2.450000 0.0
1.671429 2.450000 0.0
1.714286 2.450000 0.0
1.757143 2.450000 0.0
1.800000 2.450000 0.0
1.842857 2.450000 0.0
1.885714 2.450000 0.0
1.928571 2.450000 0.0
1.971429 2.450000 0.0
2.014286 2.450000 0.0
2.057143 2.450000 0.0
2.100000 2.450000 0.0
2.142857 2.450000 0.0
2.185714 2.450000 0.0
2.228571 2.450000 0.0
2.271429 2.450000 0.0
2.314286 2.450000 0.0
2.357143 2.450000 0.0
2.400000 2.450000 0.0
2.442857 2.450000 0.0
2.485714 2.450000 0.0
2.528571 2.450000 0.0
2.571429 2.450000 0.0
2.614286 2.450000 0.0
2.657143 2.450000 0.0
2.700000 2.450000 0.0
2.742857 2.450000 0.0
2.785714 2.450000 0.0
2.828571 2.450000 0.0
2.871429 2.450000 0.0
2.914286 2.450000 0.0
2.957143 2.450000 0.0
3.000000 2.450000 0.0
1.500000 2.493750 0.0
1.542857 2.493750 0.0
1.585714 2.493750 0.0
1.628571 2.493750 0.0
1.671429 2.493750 0.0
1.714286 2.493750 0.0
1.757143 2.493750 0.0
1.800000 2.493750 0.0
1.842857 2.493750 0.0
1.885714 2.493750 0.0
1.928571 2.493750 0.0
1.971429 2.493750 0.0
2.014286 2.493750 0.0
2.057143 2.493750 0.0
2.100000 2.493750 0.0
2.142857 2.493750 0.0
2.185714 2.493750 0.0
2.228571 2.493750 0.0
2.271429 2.493750 0.0
2.314286 2.493750 0.0
2.357143 2.493750 0.0
2.400000 2.493750 0.0
2.442857 2.493750 0.0
2.485714 2.493750 0.0
2.528571 2.493750 0.0
2.571429 2.493750 0.0
2.614286 2.493750 0.0
2.657143 2.493750 0.0
2.700000 2.493750 0.0
2.742857 2.493750 0.0
2.785714 2.493750 0.0
2.828571 2.493750 0.0
2.871429 2.493750 0.0
2.914286 2.493750 0.0
2.957143 2.493750 0.0
3.000000 2.493750 0.0
1.500000 2.537500 0.0
1.542857 2.537500 0.0
1.585714 2.537500 0.0
1.628571 2.537500 0.0
1.671429 2.537500 0.0
1.714286 2.537500 0.0
1.757143 2.537500 0.0
1.800000 2.537500 0.0
1.842857 2.537500 0.0
1.885714 2.537500 0.0
1.928571 2.537500 0.0
1.971429 2.537500 0.0
2.014286 2.537500 0.0
2.057143 2.537500 0.0
2.100000 2.537500 0.0
2.142857 2.537500 0.0
2.185714 2.537500 0.0
2.228571 2.537500 0.0
2.271429 2.537500 0.0
2.314286 2.537500 0.0
2.357143 2.537500 0.0
2.400000 2.537500 0.0
2.442857 2.537500 0.0
2.485714 2.537500 0.0
2.528571 2.537500 0.0
2.571429 2.537500 0.0
2.614286 2.537500 0.0
2.657143 2.537500 0.0
2.700000 2.537500 0.0
2.742857 2.537500 0.0
2.785714 2.537500 0.0
2.828571 2.537500 0.0
2.871429 2.537500 0.0
2.914286 2.537500 0.0
2.957143 2.537500 0.0
3.000000 2.537500 0.0
1.500000 2.581250 0.0
1.542857 2.581250 0.0
1.585714 2.581250 0.0
1.628571 2.581250 0.0
1.671429 2.581250 0.0
1.714286 2.581250 0.0
1.757143 2.581250 0.0
1.800000 2.581250 0.0
1.842857 2.581250 0.0
1.885714 2.581250 0.0
1.928571 2.581250 0.0
1.971429 2.581250 0.0
2.014286 2.581250 0.0
2.057143 2.581250 0.0
2.100000 2.581250 0.0
2.142857 2.581250 0.0
2.185714 2.581250 0.0
2.228571 2.581250 0.0
2.271429 2.581250 0.0
2.314286 2.581250 0.0
2.357143 2.581250 0.0
2.400000 2.581250 0.0
2.442857 2.581250 0.0
2.485714 2.581250 0.0
2.528571 2.581250 0.0
2.571429 2.581250 0.0
2.614286 2.581250 0.0
2.657143 2.581250 0.0
2.700000 2.581250 0.0
2.742857 2.581250 0.0
2.785714 2.581250 0.0
2.828571 2.581250 0.0
2.871429 2.581250 0.0
2.914286 2.581250 0.0
2.957143 2.581250 0.0
3.000000 2.581250 0.0
1.500000 2.625000 0.0
1.542857 2.625000 0.0
1.585714 2.625000 0.0
1.628571 2.625000 0.0
1.671429 2.625000 0.0
1.714286 2.625000 0.0
1.757143 2.625000 0.0
1.800000 2.625000 0.0
1.842857 2.625000 0.0
1.885714 2.625000 0.0
1.928571 2.625000 0.0
1.971429 2.625000 0.0
2.014286 2.625000 0.0
2.057143 2.625000 0.0
2.100000 2.625000 0.0
2.142857 2.625000 0.0
2.185714 2.625000 0.0
2.228571 2.625000 0.0
2.271429 2.625000 0.0
2.314286 2.625000 0.0
2.357143 2.625000 0.0
2.400000 2.625000 0.0
2.442857 2.625000 0.0
2.485714 2.625000 0.0
2.528571 2.625000 0.0
2.571429 2.625000 0.0
2.614286 2.625000 0.0
2.657143 2.625000 0.0
2.700000 2.625000 0.0
2.742857 2.625000 0.0
2.785714 2.625000 0.0
2.828571 2.625000 0.0
2.871429 2.625000 0.0
2.914286 2.625000 0.0
2.957143 2.625000 0.0
3.000000 2.625000 0.0
</DataArray></Points>
<PointData>
<DataArray NumberOfComponents="1" format="ascii" type ="Float32" Name="phi">
-0.249022
-0.245286
-0.234483
-0.217537
-0.195523
-0.169491
-0.140316
-0.108654
-0.075023
-0.039819
-0.003364
0.034072
0.072286
0.111112
0.150426
0.190153
0.230233
0.270613
0.311248
0.352101
0.393143
0.434348
0.475696
0.517169
0.558753
0.600435
0.642202
0.683817
0.719851
0.741906
0.749316
0.749996
0.750000
0.750000
0.750000
0.739062
-0.205436
-0.202273
-0.193020
-0.178270
-0.158800
-0.135405
-0.108768
-0.079465
-0.047968
-0.014680
0.020033
0.055912
0.092736
0.130297
0.168477
0.207189
0.246353
0.285904
0.325787
0.365954
0.406368
0.446997
0.487816
0.528799
0.569928
0.611190
0.651245
0.683495
0.701110
0.706060
0.706250
0.706250
0.706250
0.706250
0.706250
0.706250
-0.161801
-0.159062
-0.150990
-0.137985
-0.120605
-0.099448
-0.075054
-0.047898
-0.018413
0.012983
0.045954
0.080247
0.115613
0.151851
0.188834
0.226460
0.264638
0.303289
0.342348
0.381761
0.421482
0.461473
0.501701
0.542263
0.582982
0.620312
0.647177
0.659711
0.662442
0.662500
0.662500
0.662500
0.662500
0.662500
0.662500
0.662500
-0.118138
-0.115725
-0.108581
-0.096978
-0.081315
-0.062052
-0.039611
-0.014389
0.013196
0.042781
0.074072
0.106781
0.140665
0.175549
0.211299
0.247796
0.284937
0.322634
0.360816
0.399422
0.438395
0.477693
0.517275
0.556719
0.589824
0.610165
0.617864
0.618744
0.618750
0.618750
0.618750
0.618750
0.618750
0.618750
0.618750
0.618750
-0.074455
-0.072299
-0.065895
-0.055431
-0.041194
-0.023534
-0.002796
0.020663
0.046496
0.074397
0.104060
0.135208
0.167635
0.201174
0.235680
0.271023
0.307097
0.343810
0.381071
0.418816
0.456995
0.495558
0.531238
0.557736
0.571367
0.574902
0.575000
0.575000
0.575000
0.575000
0.575000
0.575000
0.575000
0.575000
0.575000
0.575000
-0.030759
-0.028806
-0.022995
-0.013463
-0.000424
0.015856
0.035095
0.056977
0.081213
0.107525
0.135624
0.165280
0.196303
0.228522
0.261791
0.295984
0.330972
0.366659
0.403121
0.440081
0.476039
0.505075
0.523155
0.530443
0.531245
0.531250
0.531250
0.531250
0.531250
0.531250
0.531250
0.531250
0.531250
0.531250
0.531250
0.531250
0.012948
0.014736
0.020061
0.028822
0.040851
0.055929
0.073838
0.094311
0.117078
0.141902
0.168542
0.196793
0.226468
0.257410
0.289473
0.322507
0.356513
0.391238
0.426293
0.455660
0.475443
0.485443
0.487468
0.487500
0.487500
0.487500
0.487500
0.487500
0.487500
0.487500
0.487500
0.487500
0.487500
0.487500
0.487500
0.487500
0.056663
0.058311
0.063227
0.071334
0.082495
0.096529
0.113251
0.132443
0.153875
0.177340
0.202631
0.229565
0.257969
0.287684
0.318547
0.350495
0.383221
0.410565
0.429882
0.440980
0.443692
0.443750
0.443750
0.443750
0.443750
0.443750
0.443750
0.443750
0.443750
0.443750
0.443750
0.443750
0.443750
0.443750
0.443750
0.443750
0.100383
0.101912
0.106478
0.114015
0.124412
0.137526
0.153196
0.171237
0.191467
0.213701
0.237754
0.263442
0.290625
0.319149
0.347513
0.370406
0.387422
0.397628
0.399957
0.400000
0.400000
0.400000
0.400000
0.400000
0.400000
0.400000
0.400000
0.400000
0.400000
0.400000
0.400000
0.400000
0.400000
0.400000
0.400000
0.400000
0.144107
0.145533
0.149794
0.156833
0.166561
0.178861
0.193596
0.210614
0.229749
0.250840
0.273739
0.298313
0.319298
0.334743
0.347998
0.355166
0.356241
0.356250
0.356250
0.356250
0.356250
0.356250
0.356250
0.356250
0.356250
0.356250
0.356250
0.356250
0.356250
0.356250
0.356250
0.356250
0.356250
0.356250
0.356250
0.356250
0.187834
0.189170
0.193162
0.199763
0.208900
0.220475
0.234372
0.250466
0.266746
0.279958
0.291270
0.303305
0.311004
0.312483
0.312500
0.312500
0.312500
0.312500
0.312500
0.312500
0.312500
0.312500
0.312500
0.312500
0.312500
0.312500
0.312500
0.312500
0.312500
0.312500
0.312500
0.312500
0.312500
0.312500
0.312500
0.312500
0.228287
0.228933
0.230866
0.234063
0.238492
0.244108
0.250858
0.258683
0.265658
0.268605
0.268750
0.268750
0.268750
0.268750
0.268750
0.268750
0.268750
0.268750
0.268750
0.268750
0.268750
0.268750
0.268750
0.268750
0.268750
0.268750
0.268750
0.268750
0.268750
0.268750
0.268750
0.268750
0.268750
0.268750
0.268750
0.268750
0.225000
0.225000
0.225000
0.225000
0.225000
0.225000
0.225000
0.225000
0.225000
0.225000
0.225000
0.225000
0.225000
0.225000
0.225000
0.225000
0.225000
0.225000
0.225000
0.225000
0.225000
0.225000
0.225000
0.225000
0.225000
0.225000
0.225000
0.225000
0.225000
0.225000
0.225000
0.225000
0.225000
0.225000
0.225000
0.225000
0.181250
0.181250
0.181250
0.181250
0.181250
0.181250
0.181250
0.181250
0.181250
0.181250
0.181250
0.181250
0.181250
0.181250
0.181250
0.181250
0.181250
0.181250
0.181250
0.181250
0.181250
0.181250
0.181250
0.181250
0.181250
0.181250
0.181250
0.181250
0.181250
0.181250
0.181250
0.181250
0.181250
0.181250
0.181250
0.181250
0.137500
0.137500
0.137500
0.137500
0.137500
0.137500
0.137500
0.137500
0.137500
0.137500
0.137500
0.137500
0.137500
0.137500
0.137500
0.137500
0.137500
0.137500
0.137500
0.137500
0.137500
0.137500
0.137500
0.137500
0.137500
0.137500
0.137500
0.137500
0.137500
0.137500
0.137500
0.137500
0.137500
0.137500
0.137500
0.137500
0.093750
0.093750
0.093750
0.093750
0.093750
0.093750
0.093750
0.093750
0.093750
0.093750
0.093750
0.093750
0.093750
0.093750
0.093750
0.093750
0.093750
0.093750
0.093750
0.093750
0.093750
0.093750
0.093750
0.093750
0.093750
0.093750
0.093750
0.093750
0.093750
0.093750
0.093750
0.093750
0.093750
0.093750
0.093750
0.093750
0.050000
0.050000
0.050000
0.050000
0.050000
0.050000
0.050000
0.050000
0.050000
0.050000
0.050000
0.050000
0.050000
0.050000
0.050000
0.050000
0.050000
0.050000
0.050000
0.050000
0.050000
0.050000
0.050000
0.050000
0.050000
0.050000
0.050000
0.050000
0.050000
0.050000
0.050000
0.050000
0.050000
0.050000
0.050000
0.050000
0.006250
0.006250
0.006250
0.006250
0.006250
0.006250
0.006250
0.006250
0.006250
0.006250
0.006250
0.006250
0.006250
0.006250
0.006250
0.006250
0.006250
0.006250
0.006250
0.006250
0.006250
0.006250
0.006250
0.006250
0.006250
0.006250
0.006250
0.006250
0.006250
0.006250
0.006250
0.006250
0.006250
0.006250
0.006250
0.006250
-0.037500
-0.037500
-0.037500
-0.037500
-0.037500
-0.037500
-0.037500
-0.037500
-0.037500
-0.037500
-0.037500
-0.037500
-0.037500
-0.037500
-0.037500
-0.037500
-0.037500
-0.037500
-0.037500
-0.037500
-0.037500
-0.037500
-0.037500
-0.037500
-0.037500
-0.037500
-0.037500
-0.037500
-0.037500
-0.037500
-0.037500
-0.037500
-0.037500
-0.037500
-0.037500
-0.037500
-0.081250
-0.081250
-0.081250
-0.081250
-0.081250
-0.081250
-0.081250
-0.081250
-0.081250
-0.081250
-0.081250
-0.081250
-0.081250
-0.081250
-0.081250
-0.081250
-0.081250
-0.081250
-0.081250
-0.081250
-0.081250
-0.081250
-0.081250
-0.081250
-0.081250
-0.081250
-0.081250
-0.081250
-0.081250
-0.081250
-0.081250
-0.081250
-0.081250
-0.081250
-0.081250
-0.081250
-0.125000
-0.125000
-0.125000
-0.125000
-0.125000
-0.125000
-0.125000
-0.125000
-0.125000
-0.125000
-0.125000
-0.125000
-0.125000
-0.125000
-0.125000
-0.125000
-0.125000
-0.125000
-0.125000
-0.125000
-0.125000
-0.125000
-0.125000
-0.125000
-0.125000
-0.125000
-0.125000
-0.125000
-0.125000
-0.125000
-0.125000
-0.125000
-0.125000
-0.125000
-0.125000
-0.114062
</DataArray>
<DataArray NumberOfComponents="1" format="ascii" type ="Float32" Name="u">
0.000000
-0.000000
-0.000001
-0.000001
-0.000001
-0.000000
-0.000000
-0.000000
0.000000
-0.000001
0.000005
0.000016
0.000013
0.000011
0.000009
0.000008
0.000007
0.000006
0.000005
0.000004
0.000004
0.000003
0.000003
0.000002
0.000002
0.000002
0.000002
0.000001
0.000001
0.000001
0.000001
0.000001
0.000000
0.000000
0.000000
0.000000
0.000000
-0.000001
-0.000001
-0.000001
-0.000001
-0.000000
0.000000
-0.000001
-0.000004
0.000002
0.000018
0.000016
0.000013
0.000011
0.000010
0.000008
0.000007
0.000006
0.000005
0.000005
0.000004
0.000004
0.000003
0.000003
0.000002
0.000002
0.000002
0.000001
0.000001
0.000001
0.000001
0.000001
0.000000
0.000000
0.000000
0.000000
0.000000
-0.000001
-0.000002
-0.000001
-0.000001
-0.000001
0.000002
-0.000004
-0.000000
0.000013
0.000020
0.000016
0.000013
0.000012
0.000010
0.000009
0.000007
0.000007
0.000006
0.000005
0.000004
0.000004
0.000003
0.000003
0.000002
0.000002
0.000002
0.000002
0.000001
0.000001
0.000001
0.000001
0.000001
0.000000
0.000000
0.000000
0.000000
-0.000003
-0.000005
-0.000002
0.000000
-0.000006
0.000005
0.000001
0.000014
0.000019
0.000017
0.000015
0.000013
0.000011
0.000010
0.000009
0.000008
0.000007
0.000006
0.000005
0.000004
0.000004
0.000003
0.000003
0.000003
0.000002
0.000002
0.000002
0.000001
0.000001
0.000001
0.000001
0.000001
0.000000
0.000000
0.000000
0.000000
-0.000004
-0.000013
-0.000002
0.000003
-0.000002
0.000008
0.000015
0.000019
0.000017
0.000015
0.000014
0.000012
0.000011
0.000010
0.000008
0.000007
0.000007
0.000006
0.000005
0.000004
0.000004
0.000003
0.000003
0.000003
0.000002
0.000002
0.000002
0.000001
0.000001
0.000001
0.000001
0.000001
0.000000
0.000000
0.000000
0.000000
-0.000002
-0.000010
0.000000
0.000006
0.000012
0.000012
0.000018
0.000016
0.000015
0.000014
0.000013
0.000011
0.000010
0.000009
0.000008
0.000007
0.000006
0.000006
0.000005
0.000004
0.000004
0.000003
0.000003
0.000003
0.000002
0.000002
0.000002
0.000001
0.000001
0.000001
0.000001
0.000001
0.000000
0.000000
0.000000
0.000000
0.000002
0.000007
0.000006
0.000008
0.000014
0.000013
0.000014
0.000014
0.000013
0.000012
0.000011
0.000010
0.000009
0.000009
0.000008
0.000007
0.000006
0.000006
0.000005
0.000004
0.000004
0.000003
0.000003
0.000003
0.000002
0.000002
0.000002
0.000001
0.000001
0.000001
0.000001
0.000001
0.000000
0.000000
0.000000
0.000000
0.000003
0.000010
0.000008
0.000009
0.000011
0.000011
0.000012
0.000012
0.000011
0.000011
0.000010
0.000009
0.000009
0.000008
0.000007
0.000007
0.000006
0.000005
0.000005
0.000004
0.000004
0.000003
0.000003
0.000003
0.000002
0.000002
0.000002
0.000001
0.000001
0.000001
0.000001
0.000001
0.000000
0.000000
0.000000
0.000000
0.000003
0.000006
0.000007
0.000008
0.000009
0.000009
0.000010
0.000010
0.000010
0.000009
0.000009
0.000008
0.000008
0.000007
0.000007
0.000006
0.000006
0.000005
0.000005
0.000004
0.000004
0.000003
0.000003
0.000003
0.000002
0.000002
0.000002
0.000001
0.000001
0.000001
0.000001
0.000001
0.000000
0.000000
0.000000
0.000000
0.000002
0.000004
0.000005
0.000006
0.000007
0.000008
0.000008
0.000008
0.000008
0.000008
0.000008
0.000008
0.000007
0.000007
0.000006
0.000006
0.000005
0.000005
0.000004
0.000004
0.000004
0.000003
0.000003
0.000003
0.000002
0.000002
0.000002
0.000001
0.000001
0.000001
0.000001
0.000001
0.000000
0.000000
0.000000
0.000000
0.000002
0.000003
0.000004
0.000005
0.000006
0.000007
0.000007
0.000007
0.000007
0.000007
0.000007
0.000007
0.000006
0.000006
0.000006
0.000005
0.000005
0.000004
0.000004
0.000004
0.000003
0.000003
0.000003
0.000002
0.000002
0.000002
0.000002
0.000001
0.000001
0.000001
0.000001
0.000001
0.000000
0.000000
0.000000
0.000000
0.000001
0.000002
0.000003
0.000004
0.000005
0.000006
0.000006
0.000006
0.000006
0.000006
0.000006
0.000006
0.000006
0.000005
0.000005
0.000005
0.000004
0.000004
0.000004
0.000003
0.000003
0.000003
0.000003
0.000002
0.000002
0.000002
0.000002
0.000001
0.000001
0.000001
0.000001
0.000001
0.000000
0.000000
0.000000
0.000000
0.000001
0.000002
0.000003
0.000004
0.000004
0.000005
0.000005
0.000005
0.000005
0.000005
0.000005
0.000005
0.000005
0.000005
0.000005
0.000004
0.000004
0.000004
0.000003
0.000003
0.000003
0.000003
0.000002
0.000002
0.000002
0.000002
0.000001
0.000001
0.000001
0.000001
0.000001
0.000001
0.000000
0.000000
0.000000
0.000000
0.000001
0.000002
0.000002
0.000003
0.000003
0.000004
0.000004
0.000004
0.000005
0.000005
0.000005
0.000005
0.000004
0.000004
0.000004
0.000004
0.000004
0.000003
0.000003
0.000003
0.000003
0.000002
0.000002
0.000002
0.000002
0.000002
0.000001
0.000001
0.000001
0.000001
0.000001
0.000000
0.000000
0.000000
0.000000
0.000000
0.000001
0.000001
0.000002
0.000002
0.000003
0.000003
0.000004
0.000004
0.000004
0.000004
0.000004
0.000004
0.000004
0.000004
0.000004
0.000003
0.000003
0.000003
0.000003
0.000003
0.000002
0.000002
0.000002
0.000002
0.000002
0.000001
0.000001
0.000001
0.000001
0.000001
0.000001
0.000000
0.000000
0.000000
0.000000
0.000000
0.000001
0.000001
0.000002
0.000002
0.000002
0.000003
0.000003
0.000003
0.000003
0.000003
0.000003
0.000003
0.000003
0.000003
0.000003
0.000003
0.000003
0.000003
0.000002
0.000002
0.000002
0.000002
0.000002
0.000002
0.000001
0.000001
0.000001
0.000001
0.000001
0.000001
0.000001
0.000000
0.000000
0.000000
0.000000
0.000000
0.000000
0.000001
0.000001
0.000002
0.000002
0.000002
0.000002
0.000003
0.000003
0.000003
0.000003
0.000003
0.000003
0.000003
0.000003
0.000003
0.000002
0.000002
0.000002
0.000002
0.000002
0.000002
0.000002
0.000002
0.000001
0.000001
0.000001
0.000001
0.000001
0.000001
0.000001
0.000000
0.000000
0.000000
0.000000
0.000000
0.000000
0.000001
0.000001
0.000002
0.000002
0.000002
0.000003
0.000003
0.000003
0.000003
0.000003
0.000003
0.000003
0.000003
0.000003
0.000003
0.000003
0.000003
0.000003
0.000002
0.000002
0.000002
0.000002
0.000002
0.000002
0.000001
0.000001
0.000001
0.000001
0.000001
0.000001
0.000000
0.000000
0.000000
0.000000
0.000000
0.000001
0.000001
0.000001
0.000002
0.000002