<VTKFile type="StructuredGrid" version="0.1" byte_order="LittleEndian">
<StructuredGrid WholeExtent="1 71 1 81 0 0">
<Piece Extent="1 36 1 21 0 0">
<PointData></PointData>
<CellData></CellData>
<Points>
<DataArray NumberOfComponents="3" format="ascii" type ="Float32" Name="mesh">
0.000000 0.000000 0.0
0.042857 0.000000 0.0
0.085714 0.000000 0.0
0.128571 0.000000 0.0
0.171429 0.000000 0.0
0.214286 0.000000 0.0
0.257143 0.000000 0.0
0.300000 0.000000 0.0
0.342857 0.000000 0.0
0.385714 0.000000 0.0
0.428571 0.000000 0.0
0.471429 0.000000 0.0
0.514286 0.000000 0.0
0.557143 0.000000 0.0
0.600000 0.000000 0.0
0.642857 0.000000 0.0
0.685714 0.000000 0.0
0.728571 0.000000 0.0
0.771429 0.000000 0.0
0.814286 0.000000 0.0
0.857143 0.000000 0.0
0.900000 0.000000 0.0
0.942857 0.000000 0.0
0.985714 0.000000 0.0
1.028571 0.000000 0.0
1.071429 0.000000 0.0
1.114286 0.000000 0.0
1.157143 0.000000 0.0
1.200000 0.000000 0.0
1.242857 0.000000 0.0
1.285714 0.000000 0.0
1.328571 0.000000 0.0
1.371429 0.000000 0.0
1.414286 0.000000 0.0
1.457143 0.000000 0.0
1.500000 0.000000 0.0
0.000000 0.043750 0.0
0.042857 0.043750 0.0
0.085714 0.043750 0.0
0.128571 0.043750 0.0
0.171429 0.043750 0.0
0.214286 0.043750 0.0
0.257143 0.043750 0.0
0.300000 0.043750 0.0
0.342857 0.043750 0.0
0.385714 0.043750 0.0
0.428571 0.043750 0.0
0.471429 0.043750 0.0
0.514286 0.043750 0.0
0.557143 0.043750 0.0
0.600000 0.043750 0.0
0.642857 0.043750 0.0
0.685714 0.043750 0.0
0.728571 0.043750 0.0
0.771429 0.043750 0.0
0.814286 0.043750 0.0
0.857143 0.043750 0.0
0.900000 0.043750 0.0
0.942857 0.043750 0.0
0.985714 0.043750 0.0
1.028571 0.043750 0.0
1.071429 0.043750 0.0
1.114286 0.043750 0.0
1.157143 0.043750 0.0
1.200000 0.043750 0.0
1.242857 0.043750 0.0
1.285714 0.043750 0.0
1.328571 0.043750 0.0
1.371429 0.043750 0.0
1.414286 0.043750 0.0
1.457143 0.043750 0.0
1.500000 0.043750 0.0
0.000000 0.087500 0.0
0.042857 0.087500 0.0
0.085714 0.087500 0.0
0.128571 0.087500 0.0
0.171429 0.087500 0.0
0.214286 0.087500 0.0
0.257143 0.087500 0.0
0.300000 0.087500 0.0
0.342857 0.087500 0.0
0.385714 0.087500 0.0
0.428571 0.087500 0.0
0.471429 0.087500 0.0
0.514286 0.087500 0.0
0.557143 0.087500 0.0
0.600000 0.087500 0.0
0.642857 0.087500 0.0
0.685714 0.087500 0.0
0.728571 0.087500 0.0
0.771429 0.087500 0.0
0.814286 0.087500 0.0
0.857143 0.087500 0.0
0.900000 0.087500 0.0
0.942857 0.087500 0.0
0.985714 0.087500 0.0
1.028571 0.087500 0.0
1.071429 0.087500 0.0
1.114286 0.087500 0.0
1.157143 0.087500 0.0
1.200000 0.087500 0.0
1.242857 0.087500 0.0
1.285714 0.087500 0.0
1.328571 0.087500 0.0
1.371429 0.087500 0.0
1.414286 0.087500 0.0
1.457143 0.087500 0.0
1.500000 0.087500 0.0
0.000000 0.131250 0.0
0.042857 0.131250 0.0
0.085714 0.131250 0.0
0.128571 0.131250 0.0
0.171429 0.131250 0.0
0.214286 0.131250 0.0
0.257143 0.131250 0.0
0.300000 0.131250 0.0
0.342857 0.131250 0.0
0.385714 0.131250 0.0
0.428571 0.131250 0.0
0.471429 0.131250 0.0
0.514286 0.131250 0.0
0.557143 0.131250 0.0
0.600000 0.131250 0.0
0.642857 0.131250 0.0
0.685714 0.131250 0.0
0.728571 0.131250 0.0
0.771429 0.131250 0.0
0.814286 0.131250 0.0
0.857143 0.131250 0.0
0.900000 0.131250 0.0
0.942857 0.131250 0.0
0.985714 0.131250 0.0
1.028571 0.131250 0.0
1.071429 0.131250 0.0
1.114286 0.131250 0.0
1.157143 0.131250 0.0
1.200000 0.131250 0.0
1.242857 0.131250 0.0
1.285714 0.131250 0.0
1.328571 0.131250 0.0
1.371429 0.131250 0.0
1.414286 0.131250 0.0
1.457143 0.131250 0.0
1.500000 0.131250 0.0
0.000000 0.175000 0.0
0.042857 0.175000 0.0
0.085714 0.175000 0.0
0.128571 0.175000 0.0
0.171429 0.175000 0.0
0.214286 0.175000 0.0
0.257143 0.175000 0.0
0.300000 0.175000 0.0
0.342857 0.175000 0.0
0.385714 0.175000 0.0
0.428571 0.175000 0.0
0.471429 0.175000 0.0
0.514286 0.175000 0.0
0.557143 0.175000 0.0
0.600000 0.175000 0.0
0.642857 0.175000 0.0
0.685714 0.175000 0.0
0.728571 0.175000 0.0
0.771429 0.175000 0.0
0.814286 0.175000 0.0
0.857143 0.175000 0.0
0.900000 0.175000 0.0
0.942857 0.175000 0.0
0.985714 0.175000 0.0
1.028571 0.175000 0.0
1.071429 0.175000 0.0
1.114286 0.175000 0.0
1.157143 0.175000 0.0
1.200000 0.175000 0.0
1.242857 0.175000 0.0
1.285714 0.175000 0.0
1.328571 0.175000 0.0
1.371429 0.175000 0.0
1.414286 0.175000 0.0
1.457143 0.175000 0.0
1.500000 0.175000 0.0
0.000000 0.218750 0.0
0.042857 0.218750 0.0
0.085714 0.218750 0.0
0.128571 0.218750 0.0
0.171429 0.218750 0.0
0.214286 0.218750 0.0
0.257143 0.218750 0.0
0.300000 0.218750 0.0
0.342857 0.218750 0.0
0.385714 0.218750 0.0
0.428571 0.218750 0.0
0.471429 0.218750 0.0
0.514286 0.218750 0.0
0.557143 0.218750 0.0
0.600000 0.218750 0.0
0.642857 0.218750 0.0
0.685714 0.218750 0.0
0.728571 0.218750 0.0
0.771429 0.218750 0.0
0.814286 0.218750 0.0
0.857143 0.218750 0.0
0.900000 0.218750 0.0
0.942857 0.218750 0.0
0.985714 0.218750 0.0
1.028571 0.218750 0.0
1.071429 0.218750 0.0
1.114286 0.218750 0.0
1.157143 0.218750 0.0
1.200000 0.218750 0.0
1.242857 0.218750 0.0
1.285714 0.218750 0.0
1.328571 0.218750 0.0
1.371429 0.218750 0.0
1.414286 0.218750 0.0
1.457143 0.218750 0.0
1.500000 0.218750 0.0
0.000000 0.262500 0.0
0.042857 0.262500 0.0
0.085714 0.262500 0.0
0.128571 0.262500 0.0
0.171429 0.262500 0.0
0.214286 0.262500 0.0
0.257143 0.262500 0.0
0.300000 0.262500 0.0
0.342857 0.262500 0.0
0.385714 0.262500 0.0
0.428571 0.262500 0.0
0.471429 0.262500 0.0
0.514286 0.262500 0.0
0.557143 0.262500 0.0
0.600000 0.262500 0.0
0.642857 0.262500 0.0
0.685714 0.262500 0.0
0.728571 0.262500 0.0
0.771429 0.262500 0.0
0.814286 0.262500 0.0
0.857143 0.262500 0.0
0.900000 0.262500 0.0
0.942857 0.262500 0.0
0.985714 0.262500 0.0
1.028571 0.262500 0.0
1.071429 0.262500 0.0
1.114286 0.262500 0.0
1.157143 0.262500 0.0
1.200000 0.262500 0.0
1.242857 0.262500 0.0
1.285714 0.262500 0.0
1.328571 0.262500 0.0
1.371429 0.262500 0.0
1.414286 0.262500 0.0
1.457143 0.262500 0.0
1.500000 0.262500 0.0
0.000000 0.306250 0.0
0.042857 0.306250 0.0
0.085714 0.306250 0.0
0.128571 0.306250 0.0
0.171429 0.306250 0.0
0.214286 0.306250 0.0
0.257143 0.306250 0.0
0.300000 0.306250 0.0
0.342857 0.306250 0.0
0.385714 0.306250 0.0
0.428571 0.306250 0.0
0.471429 0.306250 0.0
0.514286 0.306250 0.0
0.557143 0.306250 0.0
0.600000 0.306250 0.0
0.642857 0.306250 0.0
0.685714 0.306250 0.0
0.728571 0.306250 0.0
0.771429 0.306250 0.0
0.814286 0.306250 0.0
0.857143 0.306250 0.0
0.900000 0.306250 0.0
0.942857 0.306250 0.0
0.985714 0.306250 0.0
1.028571 0.306250 0.0
1.071429 0.306250 0.0
1.114286 0.306250 0.0
1.157143 0.306250 0.0
1.200000 0.306250 0.0
1.242857 0.306250 0.0
1.285714 0.306250 0.0
1.328571 0.306250 0.0
1.371429 0.306250 0.0
1.414286 0.306250 0.0
1.457143 0.306250 0.0
1.500000 0.306250 0.0
0.000000 0.350000 0.0
0.042857 0.350000 0.0
0.085714 0.350000 0.0
0.128571 0.350000 0.0
0.171429 0.350000 0.0
0.214286 0.350000 0.0
0.257143 0.350000 0.0
0.300000 0.350000 0.0
0.342857 0.350000 0.0
0.385714 0.350000 0.0
0.428571 0.350000 0.0
0.471429 0.350000 0.0
0.514286 0.350000 0.0
0.557143 0.350000 0.0
0.600000 0.350000 0.0
0.642857 0.350000 0.0
0.685714 0.350000 0.0
0.728571 0.350000 0.0
0.771429 0.350000 0.0
0.814286 0.350000 0.0
0.857143 0.350000 0.0
0.900000 0.350000 0.0
0.942857 0.350000 0.0
0.985714 0.350000 0.0
1.028571 0.350000 0.0
1.071429 0.350000 0.0
1.114286 0.350000 0.0
1.157143 0.350000 0.0
1.200000 0.350000 0.0
1.242857 0.350000 0.0
1.285714 0.350000 0.0
1.328571 0.350000 0.0
1.371429 0.350000 0.0
1.414286 0.350000 0.0
1.457143 0.350000 0.0
1.500000 0.350000 0.0
0.000000 0.393750 0.0
0.042857 0.393750 0.0
0.085714 0.393750 0.0
0.128571 0.393750 0.0
0.171429 0.393750 0.0
0.214286 0.393750 0.0
0.257143 0.393750 0.0
0.300000 0.393750 0.0
0.342857 0.393750 0.0
0.385714 0.393750 0.0
0.428571 0.393750 0.0
0.471429 0.393750 0.0
0.514286 0.393750 0.0
0.557143 0.393750 0.0
0.600000 0.393750 0.0
0.642857 0.393750 0.0
0.685714 0.393750 0.0
0.728571 0.393750 0.0
0.771429 0.393750 0.0
0.814286 0.393750 0.0
0.857143 0.393750 0.0
0.900000 0.393750 0.0
0.942857 0.393750 0.0
0.985714 0.393750 0.0
1.028571 0.393750 0.0
1.071429 0.393750 0.0
1.114286 0.393750 0.0
1.157143 0.393750 0.0
1.200000 0.393750 0.0
1.242857 0.393750 0.0
1.285714 0.393750 0.0
1.328571 0.393750 0.0
1.371429 0.393750 0.0
1.414286 0.393750 0.0
1.457143 0.393750 0.0
1.500000 0.393750 0.0
0.000000 0.437500 0.0
0.042857 0.437500 0.0
0.085714 0.437500 0.0
0.128571 0.437500 0.0
0.171429 0.437500 0.0
0.214286 0.437500 0.0
0.257143 0.437500 0.0
0.300000 0.437500 0.0
0.342857 0.437500 0.0
0.385714 0.437500 0.0
0.428571 0.437500 0.0
0.471429 0.437500 0.0
0.514286 0.437500 0.0
0.557143 0.437500 0.0
0.600000 0.437500 0.0
0.642857 0.437500 0.0
0.685714 0.437500 0.0
0.728571 0.437500 0.0
0.771429 0.437500 0.0
0.814286 0.437500 0.0
0.857143 0.437500 0.0
0.900000 0.437500 0.0
0.942857 0.437500 0.0
0.985714 0.437500 0.0
1.028571 0.437500 0.0
1.071429 0.437500 0.0
1.114286 0.437500 0.0
1.157143 0.437500 0.0
1.200000 0.437500 0.0
1.242857 0.437500 0.0
1.285714 0.437500 0.0
1.328571 0.437500 0.0
1.371429 0.437500 0.0
1.414286 0.437500 0.0
1.457143 0.437500 0.0
1.500000 0.437500 0.0
0.000000 0.481250 0.0
0.042857 0.481250 0.0
0.085714 0.481250 0.0
0.128571 0.481250 0.0
0.171429 0.481250 0.0
0.214286 0.481250 0.0
0.257143 0.481250 0.0
0.300000 0.481250 0.0
0.342857 0.481250 0.0
0.385714 0.481250 0.0
0.428571 0.481250 0.0
0.471429 0.481250 0.0
0.514286 0.481250 0.0
0.557143 0.481250 0.0
0.600000 0.481250 0.0
0.642857 0.481250 0.0
0.685714 0.481250 0.0
0.728571 0.481250 0.0
0.771429 0.481250 0.0
0.814286 0.481250 0.0
0.857143 0.481250 0.0
0.900000 0.481250 0.0
0.942857 0.481250 0.0
0.985714 0.481250 0.0
1.028571 0.481250 0.0
1.071429 0.481250 0.0
1.114286 0.481250 0.0
1.157143 0.481250 0.0
1.200000 0.481250 0.0
1.242857 0.481250 0.0
1.285714 0.481250 0.0
1.328571 0.481250 0.0
1.371429 0.481250 0.0
1.414286 0.481250 0.0
1.457143 0.481250 0.0
1.500000 0.481250 0.0
0.000000 0.525000 0.0
0.042857 0.525000 0.0
0.085714 0.525000 0.0
0.128571 0.525000 0.0
0.171429 0.525000 0.0
0.214286 0.525000 0.0
0.257143 0.525000 0.0
0.300000 0.525000 0.0
0.342857 0.525000 0.0
0.385714 0.525000 0.0
0.428571 0.525000 0.0
0.471429 0.525000 0.0
0.514286 0.525000 0.0
0.557143 0.525000 0.0
0.600000 0.525000 0.0
0.642857 0.525000 0.0
0.685714 0.525000 0.0
0.728571 0.525000 0.0
0.771429 0.525000 0.0
0.814286 0.525000 0.0
0.857143 0.525000 0.0
0.900000 0.525000 0.0
0.942857 0.525000 0.0
0.985714 0.525000 0.0
1.028571 0.525000 0.0
1.071429 0.525000 0.0
1.114286 0.525000 0.0
1.157143 0.525000 0.0
1.200000 0.525000 0.0
1.242857 0.525000 0.0
1.285714 0.525000 0.0
1.328571 0.525000 0.0
1.371429 0.525000 0.0
1.414286 0.525000 0.0
1.457143 0.525000 0.0
1.500000 0.525000 0.0
0.000000 0.568750 0.0
0.042857 0.568750 0.0
0.085714 0.568750 0.0
0.128571 0.568750 0.0
0.171429 0.568750 0.0
0.214286 0.568750 0.0
0.257143 0.568750 0.0
0.300000 0.568750 0.0
0.342857 0.568750 0.0
0.385714 0.568750 0.0
0.428571 0.568750 0.0
0.471429 0.568750 0.0
0.514286 0.568750 0.0
0.557143 0.568750 0.0
0.600000 0.568750 0.0
0.642857 0.568750 0.0
0.685714 0.568750 0.0
0.728571 0.568750 0.0
0.771429 0.568750 0.0
0.814286 0.568750 0.0
0.857143 0.568750 0.0
0.900000 0.568750 0.0
0.942857 0.568750 0.0
0.985714 0.568750 0.0
1.028571 0.568750 0.0
1.071429 0.568750 0.0
1.114286 0.568750 0.0
1.157143 0.568750 0.0
1.200000 0.568750 0.0
1.242857 0.568750 0.0
1.285714 0.568750 0.0
1.328571 0.568750 0.0
1.371429 0.568750 0.0
1.414286 0.568750 0.0
1.457143 0.568750 0.0
1.500000 0.568750 0.0
0.000000 0.612500 0.0
0.042857 0.612500 0.0
0.085714 0.612500 0.0
0.128571 0.612500 0.0
0.171429 0.612500 0.0
0.214286 0.612500 0.0
0.257143 0.612500 0.0
0.300000 0.612500 0.0
0.342857 0.612500 0.0
0.385714 0.612500 0.0
0.428571 0.612500 0.0
0.471429 0.612500 0.0
0.514286 0.612500 0.0
0.557143 0.612500 0.0
0.600000 0.612500 0.0
0.642857 0.612500 0.0
0.685714 0.612500 0.0
0.728571 0.612500 0.0
0.771429 0.612500 0.0
0.814286 0.612500 0.0
0.857143 0.612500 0.0
0.900000 0.612500 0.0
0.942857 0.612500 0.0
0.985714 0.612500 0.0
1.028571 0.612500 0.0
1.071429 0.612500 0.0
1.114286 0.612500 0.0
1.157143 0.612500 0.0
1.200000 0.612500 0.0
1.242857 0.612500 0.0
1.285714 0.612500 0.0
1.328571 0.612500 0.0
1.371429 0.612500 0.0
1.414286 0.612500 0.0
1.457143 0.612500 0.0
1.500000 0.612500 0.0
0.000000 0.656250 0.0
0.042857 0.656250 0.0
0.085714 0.656250 0.0
0.128571 0.656250 0.0
0.171429 0.656250 0.0
0.214286 0.656250 0.0
0.257143 0.656250 0.0
0.300000 0.656250 0.0
0.342857 0.656250 0.0
0.385714 0.656250 0.0
0.428571 0.656250 0.0
0.471429 0.656250 0.0
0.514286 0.656250 0.0
0.557143 0.656250 0.0
0.600000 0.656250 0.0
0.642857 0.656250 0.0
0.685714 0.656250 0.0
0.728571 0.656250 0.0
0.771429 0.656250 0.0
0.814286 0.656250 0.0
0.857143 0.656250 0.0
0.900000 0.656250 0.0
0.942857 0.656250 0.0
0.985714 0.656250 0.0
1.028571 0.656250 0.0
1.071429 0.656250 0.0
1.114286 0.656250 0.0
1.157143 0.656250 0.0
1.200000 0.656250 0.0
1.242857 0.656250 0.0
1.285714 0.656250 0.0
1.328571 0.656250 0.0
1.371429 0.656250 0.0
1.414286 0.656250 0.0
1.457143 0.656250 0.0
1.500000 0.656250 0.0
0.000000 0.700000 0.0
0.042857 0.700000 0.0
0.085714 0.700000 0.0
0.128571 0.700000 0.0
0.171429 0.700000 0.0
0.214286 0.700000 0.0
0.257143 0.700000 0.0
0.300000 0.700000 0.0
0.342857 0.700000 0.0
0.385714 0.700000 0.0
0.428571 0.700000 0.0
0.471429 0.700000 0.0
0.514286 0.700000 0.0
0.557143 0.700000 0.0
0.600000 0.700000 0.0
0.642857 0.700000 0.0
0.685714 0.700000 0.0
0.728571 0.700000 0.0
0.771429 0.700000 0.0
0.814286 0.700000 0.0
0.857143 0.700000 0.0
0.900000 0.700000 0.0
0.942857 0.700000 0.0
0.985714 0.700000 0.0
1.028571 0.700000 0.0
1.071429 0.700000 0.0
1.114286 0.700000 0.0
1.157143 0.700000 0.0
1.200000 0.700000 0.0
1.242857 0.700000 0.0
1.285714 0.700000 0.0
1.328571 0.700000 0.0
1.371429 0.700000 0.0
1.414286 0.700000 0.0
1.457143 0.700000 0.0
1.500000 0.700000 0.0
0.000000 0.743750 0.0
0.042857 0.743750 0.0
0.085714 0.743750 0.0
0.128571 0.743750 0.0
0.171429 0.743750 0.0
0.214286 0.743750 0.0
0.257143 0.743750 0.0
0.300000 0.743750 0.0
0.342857 0.743750 0.0
0.385714 0.743750 0.0
0.428571 0.743750 0.0
0.471429 0.743750 0.0
0.514286 0.743750 0.0
0.557143 0.743750 0.0
0.600000 0.743750 0.0
0.642857 0.743750 0.0
0.685714 0.743750 0.0
0.728571 0.743750 0.0
0.771429 0.743750 0.0
0.814286 0.743750 0.0
0.857143 0.743750 0.0
0.900000 0.743750 0.0
0.942857 0.743750 0.0
0.985714 0.743750 0.0
1.028571 0.743750 0.0
1.071429 0.743750 0.0
1.114286 0.743750 0.0
1.157143 0.743750 0.0
1.200000 0.743750 0.0
1.242857 0.743750 0.0
1.285714 0.743750 0.0
1.328571 0.743750 0.0
1.371429 0.743750 0.0
1.414286 0.743750 0.0
1.457143 0.743750 0.0
1.500000 0.743750 0.0
0.000000 0.787500 0.0
0.042857 0.787500 0.0
0.085714 0.787500 0.0
0.128571 0.787500 0.0
0.171429 0.787500 0.0
0.214286 0.787500 0.0
0.257143 0.787500 0.0
0.300000 0.787500 0.0
0.342857 0.787500 0.0
0.385714 0.787500 0.0
0.428571 0.787500 0.0
0.471429 0.787500 0.0
0.514286 0.787500 0.0
0.557143 0.787500 0.0
0.600000 0.787500 0.0
0.642857 0.787500 0.0
0.685714 0.787500 0.0
0.728571 0.787500 0.0
0.771429 0.787500 0.0
0.814286 0.787500 0.0
0.857143 0.787500 0.0
0.900000 0.787500 0.0
0.942857 0.787500 0.0
0.985714 0.787500 0.0
1.028571 0.787500 0.0
1.071429 0.787500 0.0
1.114286 0.787500 0.0
1.157143 0.787500 0.0
1.200000 0.787500 0.0
1.242857 0.787500 0.0
1.285714 0.787500 0.0
1.328571 0.787500 0.0
1.371429 0.787500 0.0
1.414286 0.787500 0.0
1.457143 0.787500 0.0
1.500000 0.787500 0.0
0.000000 0.831250 0.0
0.042857 0.831250 0.0
0.085714 0.831250 0.0
0.128571 0.831250 0.0
0.171429 0.831250 0.0
0.214286 0.831250 0.0
0.257143 0.831250 0.0
0.300000 0.831250 0.0
0.342857 0.831250 0.0
0.385714 0.831250 0.0
0.428571 0.831250 0.0
0.471429 0.831250 0.0
0.514286 0.831250 0.0
0.557143 0.831250 0.0
0.600000 0.831250 0.0
0.642857 0.831250 0.0
0.685714 0.831250 0.0
0.728571 0.831250 0.0
0.771429 0.831250 0.0
0.814286 0.831250 0.0
0.857143 0.831250 0.0
0.900000 0.831250 0.0
0.942857 0.831250 0.0
0.985714 0.831250 0.0
1.028571 0.831250 0.0
1.071429 0.831250 0.0
1.114286 0.831250 0.0
1.157143 0.831250 0.0
1.200000 0.831250 0.0
1.242857 0.831250 0.0
1.285714 0.831250 0.0
1.328571 0.831250 0.0
1.371429 0.831250 0.0
1.414286 0.831250 0.0
1.457143 0.831250 0.0
1.500000 0.831250 0.0
0.000000 0.875000 0.0
0.042857 0.875000 0.0
0.085714 0.875000 0.0
0.128571 0.875000 0.0
0.171429 0.875000 0.0
0.214286 0.875000 0.0
0.257143 0.875000 0.0
0.300000 0.875000 0.0
0.342857 0.875000 0.0
0.385714 0.875000 0.0
0.428571 0.875000 0.0
0.471429 0.875000 0.0
0.514286 0.875000 0.0
0.557143 0.875000 0.0
0.600000 0.875000 0.0
0.642857 0.875000 0.0
0.685714 0.875000 0.0
0.728571 0.875000 0.0
0.771429 0.875000 0.0
0.814286 0.875000 0.0
0.857143 0.875000 0.0
0.900000 0.875000 0.0
0.942857 0.875000 0.0
0.985714 0.875000 0.0
1.028571 0.875000 0.0
1.071429 0.875000 0.0
1.114286 0.875000 0.0
1.157143 0.875000 0.0
1.200000 0.875000 0.0
1.242857 0.875000 0.0
1.285714 0.875000 0.0
1.328571 0.875000 0.0
1.371429 0.875000 0.0
1.414286 0.875000 0.0
1.457143 0.875000 0.0
1.500000 0.875000 0.0
</DataArray></Points>
<PointData>
<DataArray NumberOfComponents="1" format="ascii" type ="Float32" Name="phi">
1.609976
1.595007
1.565207
1.535715
1.506818
1.478804
1.451495
1.424650
1.398229
1.372225
1.346716
1.322074
1.298457
1.275604
1.253375
1.231759
1.210781
1.190609
1.171508
1.153454
1.136261
1.119900
1.104428
1.089987
1.076678
1.064454
1.053253
1.043070
1.033915
1.025812
1.018811
1.012992
1.008409
1.005061
1.002936
1.002219
1.594496
1.579373
1.549279
1.519588
1.490600
1.462417
1.434811
1.407639
1.380886
1.354587
1.328923
1.304178
1.280338
1.257183
1.234637
1.212718
1.191506
1.171208
1.151968
1.133678
1.116220
1.099605
1.083919
1.069312
1.055844
1.043455
1.032103
1.021787
1.012512
1.004301
0.997204
0.991300
0.986650
0.983252
0.981094
0.980366
1.563670
1.548253
1.517644
1.487665
1.458449
1.429806
1.401573
1.373732
1.346326
1.319548
1.293635
1.268581
1.244207
1.220415
1.197225
1.174735
1.153156
1.132606
1.112982
1.094171
1.076169
1.059054
1.042978
1.028052
1.014240
1.001496
0.989832
0.979244
0.969727
0.961298
0.954004
0.947927
0.943137
0.939637
0.937412
0.936659
1.533131
1.517512
1.486616
1.456417
1.426771
1.397503
1.368595
1.340089
1.312181
1.285120
1.258893
1.233308
1.208273
1.183806
1.160012
1.137123
1.115268
1.094319
1.074145
1.054747
1.036199
1.018662
1.002266
0.986985
0.972754
0.959619
0.947631
0.936762
0.926996
0.918342
0.910843
0.904581
0.899639
0.896029
0.893731
0.892952
1.503147
1.487443
1.456333
1.425712
1.395442
1.365497
1.335919
1.306909
1.278717
1.251326
1.224542
1.198273
1.172536
1.147439
1.123234
1.100059
1.077768
1.056221
1.035417
1.015432
0.996441
0.978586
0.961825
0.946075
0.931368
0.917837
0.905524
0.894367
0.884337
0.875443
0.867723
0.861261
0.856155
0.852425
0.850052
0.849245
1.474034
1.458177
1.426628
1.395390
1.364445
1.333832
1.303748
1.274449
1.245917
1.217954
1.190470
1.163477
1.137088
1.111566
1.087061
1.063417
1.040486
1.018264
0.996832
0.976384
0.957070
0.938829
0.921554
0.905261
0.890088
0.876182
0.863537
0.852066
0.841748
0.832593
0.824637
0.817963
0.812682
0.808827
0.806374
0.805537
1.445647
1.429501
1.397339
1.365435
1.333827
1.302706
1.272331
1.242687
1.213574
1.184901
1.156679
1.129017
1.102189
1.076353
1.051354
1.027033
1.003386
0.980494
0.958573
0.937788
0.918058
0.899256
0.881384
0.864552
0.848958
0.834690
0.821670
0.809848
0.799220
0.789789
0.781585
0.774688
0.769223
0.765236
0.762698
0.761830
1.417734
1.401268
1.368449
1.335891
1.303777
1.272362
1.241643
1.211418
1.181592
1.152175
1.123271
1.095158
1.068006
1.041657
1.015950
0.990878
0.966519
0.943107
0.920830
0.899595
0.879256
0.859803
0.841330
0.824036
0.808063
0.793368
0.779909
0.767707
0.756750
0.747030
0.738567
0.731438
0.725781
0.721654
0.719024
0.718122
1.390254
1.373463
1.340003
1.306940
1.274530
1.242776
1.211483
1.180550
1.149981
1.119878
1.090514
1.062069
1.034390
1.007314
0.980828
0.955006
0.930093
0.906304
0.883545
0.861654
0.840609
0.820499
0.801526
0.783848
0.767422
0.752193
0.738249
0.725648
0.714347
0.704324
0.695593
0.688223
0.682362
0.678082
0.675354
0.674415
1.363204
1.346123
1.312175
1.278807
1.246065
1.213752
1.181763
1.150096
1.118846
1.088277
1.058574
1.029597
1.001179
0.973305
0.946041
0.919634
0.894322
0.870024
0.846566
0.823916
0.802156
0.781505
0.762135
0.743983
0.726960
0.711141
0.696704
0.683692
0.672031
0.661692
0.652678
0.645053
0.638969
0.634521
0.631686
0.630707
1.336661
1.319406
1.285176
1.251483
1.218199
1.185207
1.152503
1.120167
1.088448
1.057533
1.027297
0.997578
0.968357
0.939688
0.911812
0.884986
0.859148
0.834118
0.809851
0.786424
0.764073
0.742999
0.723125
0.704326
0.686633
0.670231
0.655314
0.641875
0.629829
0.619149
0.609831
0.601930
0.595601
0.590970
0.588021
0.586999
1.310957
1.293571
1.259007
1.224795
1.190851
1.157170
1.123825
1.091024
1.058943
1.027492
0.996521
0.966003
0.935987
0.906691
0.878377
0.851013
0.824418
0.798540
0.773439
0.749360
0.726548
0.704937
0.684366
0.664831
0.646474
0.629543
0.614146
0.600225
0.587749
0.576694
0.567046
0.558848
0.552257
0.547430
0.544359
0.543292
1.286233
1.268617
1.233518
1.198668
1.164069
1.129796
1.096002
1.062813
1.030182
0.998001
0.966244
0.934950
0.904305
0.874551
0.845687
0.817553
0.790085
0.763329
0.737512
0.712929
0.689552
0.667194
0.645821
0.625549
0.606622
0.589194
0.573224
0.558735
0.545782
0.534322
0.524321
0.515809
0.508941
0.503904
0.500702
0.499585
1.262270
1.244356
1.208641
1.173176
1.138050
1.103359
1.069148
1.035387
1.002027
0.969076
0.936581
0.904679
0.873548
0.843218
0.813576
0.784560
0.756192
0.728663
0.702295
0.677130
0.652968
0.629741
0.607551
0.586654
0.567218
0.549177
0.532510
0.517395
0.503931
0.492038
0.481663
0.472820
0.465659
0.460397
0.457050
0.455878
1.238957
1.220749
1.184469
1.148534
1.113017
1.077886
1.043091
1.008623
0.974524
0.940900
0.907841
0.875415
0.843651
0.812521
0.782000
0.752091
0.722917
0.694785
0.667822
0.641851
0.616765
0.592637
0.569742
0.548292
0.528209
0.509401
0.491986
0.476227
0.462220
0.449862
0.439090
0.429897
0.422421
0.416910
0.413404
0.412171
1.216305
1.197869
1.161181
1.124872
1.088892
1.053171
1.017711
0.982572
0.947890
0.913756
0.880150
0.847042
0.814449
0.782438
0.751059
0.720361
0.690531
0.661765
0.633987
0.607056
0.581000
0.556068
0.532549
0.510405
0.489494
0.469854
0.451699
0.435293
0.420693
0.407823
0.396621
0.387052
0.379230
0.373443
0.369764
0.368465
1.194480
1.175881
1.138840
1.102065
1.065498
1.029142
0.993074
0.957435
0.922301
0.887610
0.853298
0.819381
0.785955
0.753162
0.721056
0.689648
0.659100
0.629497
0.600747
0.572815
0.545856
0.520202
0.495939
0.472906
0.451083
0.430629
0.411788
0.394686
0.379389
0.365939
0.354264
0.344286
0.336087
0.329998
0.326131
0.324760
1.173643
1.154846
1.117339
1.079995
1.042819
1.005897
0.969382
0.933326
0.897638
0.862246
0.827165
0.792503
0.758421
0.724986
0.692156
0.659937
0.628500
0.597940
0.568205
0.539328
0.511536
0.485057
0.459850
0.435831
0.413108
0.391903
0.372344
0.354429
0.338324
0.324214
0.312019
0.301603
0.292999
0.286581
0.282507
0.281056
1.153723
1.134665
1.096606
1.058676
1.020963
0.983632
0.946725
0.910128
0.873762
0.837640
0.801882
0.766662
0.732024
0.697886
0.664206
0.631085
0.598739
0.567265
0.536610
0.506817
0.478094
0.450609
0.424363
0.399369
0.375770
0.353741
0.333314
0.314488
0.297518
0.282674
0.269903
0.259016
0.249977
0.243199
0.238894
0.237353
1.134624
1.115286
1.076660
1.038214
1.000120
0.962424
0.924996
0.887747
0.850686
0.813937
0.777684
0.741956
0.706639
0.671678
0.637129
0.603191
0.570054
0.537712
0.506105
0.475305
0.445533
0.416997
0.389728
0.363723
0.339114
0.316081
0.294668
0.274909
0.257042
0.241369
0.227941
0.216545
0.207033
0.199855
0.195292
0.193650
1.120808
1.096732
1.057611
1.018800
0.980369
0.942178
0.904122
0.866207
0.828552
0.791350
0.754629
0.718254
0.682155
0.646370
0.611073
0.576471
0.542571
0.509283
0.476623
0.444771
0.414005
0.384456
0.356075
0.328878
0.303089
0.278952
0.256514
0.235817
0.217006
0.200364
0.186152
0.174197
0.164175
0.156553
0.151703
0.149949
</DataArray>
<DataArray NumberOfComponents="1" format="ascii" type ="Float32" Name="u">
0.000000
0.000000
0.000000
0.000000
0.000000
0.000000
0.000000
0.000000
0.000000
0.000000
0.000000
0.000000
0.000000
0.000000
0.000000
0.000000
0.000000
0.000000
0.000000
0.000000
0.000000
0.000000
0.000000
0.000000
0.000000
0.000000
0.000000
0.000000
0.000000
0.000000
0.000000
0.000000
0.000000
0.000000
0.000000
0.000000
0.002430
0.002430
0.002436
0.002440
0.002443
0.002444
0.002444
0.002442
0.002439
0.002433
0.002425
0.002413
0.002398
0.002378
0.002354
0.002324
0.002288
0.002244
0.002193
0.002135
0.002067
0.001990
0.001904
0.001808
0.001702
0.001586
0.001460
0.001325
0.001182
0.001030
0.000871
0.000705
0.000535
0.000360
0.000183
0.000004
0.003415
0.003415
0.003422
0.003428
0.003432
0.003435
0.003436
0.003435
0.003431
0.003425
0.003414
0.003400
0.003380
0.003354
0.003321
0.003281
0.003231
0.003172
0.003102
0.003021
0.002927
0.002821
0.002700
0.002566
0.002417
0.002254
0.002077
0.001886
0.001683
0.001467
0.001241
0.001006
0.000763
0.000514
0.000261
0.000006
0.003753
0.003753
0.003760
0.003766
0.003771
0.003775
0.003778
0.003778
0.003775
0.003770
0.003760
0.003746
0.003726
0.003700
0.003666
0.003624
0.003572
0.003509
0.003435
0.003348
0.003246
0.003131
0.002999
0.002852
0.002689
0.002510
0.002314
0.002103
0.001877
0.001638
0.001386
0.001124
0.000852
0.000574
0.000291
0.000006
0.003854
0.003854
0.003861
0.003867
0.003873
0.003878
0.003882
0.003884
0.003883
0.003879
0.003872
0.003860
0.003842
0.003818
0.003787
0.003747
0.003697
0.003636
0.003562
0.003475
0.003374
0.003257
0.003124
0.002974
0.002807
0.002622
0.002420
0.002202
0.001967
0.001717
0.001454
0.001179
0.000895
0.000603
0.000306
0.000007
0.003882
0.003882
0.003889
0.003896
0.003903
0.003909
0.003914
0.003918
0.003920
0.003919
0.003915
0.003906
0.003892
0.003872
0.003845
0.003809
0.003763
0.003705
0.003636
0.003552
0.003454
0.003339
0.003208
0.003058
0.002890
0.002704
0.002499
0.002276
0.002035
0.001778
0.001507
0.001223
0.000929
0.000626
0.000318
0.000007
0.003892
0.003892
0.003899
0.003907
0.003915
0.003922
0.003930
0.003936
0.003941
0.003943
0.003943
0.003938
0.003929
0.003914
0.003892
0.003862
0.003821
0.003770
0.003706
0.003627
0.003534
0.003423
0.003294
0.003147
0.002979
0.002792
0.002584
0.002357
0.002111
0.001847
0.001567
0.001273
0.000967
0.000652
0.000331
0.000007
0.003897
0.003897
0.003905
0.003913
0.003922
0.003932
0.003941
0.003951
0.003959
0.003966
0.003970
0.003971
0.003968
0.003959
0.003944
0.003921
0.003887
0.003843
0.003786
0.003715
0.003627
0.003522
0.003397
0.003253
0.003087
0.002899
0.002689
0.002457
0.002204
0.001931
0.001641
0.001334
0.001014
0.000685
0.000348
0.000007
0.003900
0.003900
0.003908
0.003917
0.003928
0.003940
0.003952
0.003965
0.003978
0.003990
0.004000
0.004008
0.004011
0.004010
0.004003
0.003988
0.003964
0.003929
0.003881
0.003818
0.003738
0.003639
0.003521
0.003380
0.003216
0.003028
0.002816
0.002579
0.002318
0.002035
0.001732
0.001410
0.001073
0.000725
0.000368
0.000008
0.003901
0.003901
0.003910
0.003920
0.003932
0.003947
0.003963
0.003980
0.003998
0.004015
0.004032
0.004047
0.004059
0.004067
0.004070
0.004065
0.004052
0.004027
0.003990
0.003937
0.003868
0.003778
0.003667
0.003532
0.003371
0.003184
0.002969
0.002727
0.002457
0.002162
0.001843
0.001503
0.001145
0.000774
0.000394
0.000009
0.003900
0.003900
0.003909
0.003920
0.003935
0.003952
0.003972
0.003994
0.004017
0.004042
0.004066
0.004090
0.004111
0.004130
0.004144
0.004151
0.004150
0.004139
0.004115
0.004075
0.004018
0.003939
0.003838
0.003710
0.003555
0.003369
0.003153
0.002904
0.002625
0.002315
0.001978
0.001616
0.001234
0.000835
0.000425
0.000009
0.003895
0.003895
0.003905
0.003918
0.003934
0.003955
0.003979
0.004006
0.004036
0.004068
0.004101
0.004134
0.004166
0.004197
0.004224
0.004245
0.004259
0.004263
0.004255
0.004231
0.004189
0.004125
0.004036
0.003918
0.003770
0.003588
0.003370
0.003116
0.002826
0.002500
0.002141
0.001753
0.001340
0.000908
0.000463
0.000011
0.003886
0.003886
0.003896
0.003910
0.003930
0.003954
0.003983
0.004016
0.004052
0.004092
0.004134
0.004178
0.004223
0.004267
0.004309
0.004346
0.004377
0.004400
0.004410
0.004405
0.004381
0.004335
0.004262
0.004158
0.004020
0.003844
0.003627
0.003368
0.003066
0.002722
0.002338
0.001920
0.001471
0.000998
0.000509
0.000012
0.003871
0.003871
0.003882
0.003898
0.003920
0.003948
0.003982
0.004021
0.004065
0.004114
0.004166
0.004222
0.004280
0.004339
0.004397
0.004453
0.004504
0.004547
0.004580
0.004598
0.004597
0.004573
0.004520
0.004434
0.004310
0.004143
0.003929
0.003666
0.003352
0.002988
0.002576
0.002121
0.001629
0.001108
0.000566
0.000015
0.003850
0.003850
0.003861
0.003879
0.003904
0.003937
0.003975
0.004021
0.004073
0.004131
0.004195
0.004264
0.004336
0.004412
0.004488
0.004565
0.004638
0.004706
0.004764
0.004809
0.004835
0.004838
0.004811
0.004749
0.004644
0.004491
0.004284
0.004019
0.003695
0.003309
0.002865
0.002368
0.001824
0.001243
0.000637
0.000018
0.003821
0.003821
0.003833
0.003853
0.003881
0.003918
0.003962
0.004015
0.004075
0.004143
0.004218
0.004300
0.004389
0.004482
0.004579
0.004678
0.004777
0.004872
0.004960
0.005037
0.005096
0.005132
0.005138
0.005106
0.005027
0.004895
0.004700
0.004438
0.004105
0.003697
0.003217
0.002671
0.002065
0.001412
0.000726
0.000023
0.003782
0.003782
0.003795
0.003818
0.003849
0.003890
0.003940
0.004000
0.004069
0.004147
0.004234
0.004331
0.004436
0.004548
0.004668
0.004792
0.004918
0.005045
0.005167
0.005280
0.005379
0.005455
0.005501
0.005508
0.005465
0.005361
0.005188
0.004935
0.004596
0.004168
0.003649
0.003046
0.002367
0.001625
0.000840
0.000031
0.003732
0.003732
0.003748
0.003773
0.003808
0.003853
0.003909
0.003975
0.004053
0.004141
0.004241
0.004352
0.004475
0.004608
0.004750
0.004901
0.005059
0.005220
0.005381
0.005537
0.005681
0.005806
0.005902
0.005958
0.005961
0.005899
0.005757
0.005523
0.005187
0.004741
0.004183
0.003516
0.002749
0.001899
0.000988
0.000044
0.003672
0.003672
0.003690
0.003718
0.003757
0.003806
0.003867
0.003940
0.004025
0.004124
0.004236
0.004363
0.004503
0.004656
0.004824
0.005004
0.005194
0.005394
0.005598
0.005802
0.006000
0.006183
0.006339
0.006456
0.006520
0.006514
0.006419
0.006219