<VTKFile type="StructuredGrid" version="0.1" byte_order="LittleEndian">
<StructuredGrid WholeExtent="1 71 1 81 0 0">
<Piece Extent="36 71 41 61 0 0">
<PointData></PointData>
<CellData></CellData>
<Points>
<DataArray NumberOfComponents="3" format="ascii" type ="Float32" Name="mesh">
1.500000 1.750000 0.0
1.542857 1.750000 0.0
1.585714 1.750000 0.0
1.628571 1.750000 0.0
1.671429 1.750000 0.0
1.714286 1.750000 0.0
1.757143 1.750000 0.0
1.800000 1.750000 0.0
1.842857 1.750000 0.0
1.885714 1.750000 0.0
1.928571 1.750000 0.0
1.971429 1.750000 0.0
2.014286 1.750000 0.0
2.057143 1.750000 0.0
2.100000 1.750000 0.0
2.142857 1.750000 0.0
2.185714 1.750000 0.0
2.228571 1.750000 0.0
2.271429 1.750000 0.0
2.314286 1.750000 0.0
2.357143 1.750000 0.0
2.400000 1.750000 0.0
2.442857 1.750000 0.0
2.485714 1.750000 0.0
2.528571 1.750000 0.0
2.571429 1.750000 0.0
2.614286 1.750000 0.0
2.657143 1.750000 0.0
2.700000 1.750000 0.0
2.742857 1.750000 0.0
2.785714 1.750000 0.0
2.828571 1.750000 0.0
2.871429 1.750000 0.0
2.914286 1.750000 0.0
2.957143 1.750000 0.0
3.000000 1.750000 0.0
1.500000 1.793750 0.0
1.542857 1.793750 0.0
1.585714 1.793750 0.0
1.628571 1.793750 0.0
1.671429 1.793750 0.0
1.714286 1.793750 0.0
1.757143 1.793750 0.0
1.800000 1.793750 0.0
1.842857 1.793750 0.0
1.885714 1.793750 0.0
1.928571 1.793750 0.0
1.971429 1.793750 0.0
2.014286 1.793750 0.0
2.057143 1.793750 0.0
2.100000 1.793750 0.0
2.142857 1.793750 0.0
2.185714 1.793750 0.0
2.228571 1.793750 0.0
2.271429 1.793750 0.0
2.314286 1.793750 0.0
2.357143 1.793750 0.0
2.400000 1.793750 0.0
2.442857 1.793750 0.0
2.485714 1.793750 0.0
2.528571 1.793750 0.0
2.571429 1.793750 0.0
2.614286 1.793750 0.0
2.657143 1.793750 0.0
2.700000 1.793750 0.0
2.742857 1.793750 0.0
2.785714 1.793750 0.0
2.828571 1.793750 0.0
2.871429 1.793750 0.0
2.914286 1.793750 0.0
2.957143 1.793750 0.0
3.000000 1.793750 0.0
1.500000 1.837500 0.0
1.542857 1.837500 0.0
1.585714 1.837500 0.0
1.628571 1.837500 0.0
1.671429 1.837500 0.0
1.714286 1.837500 0.0
1.757143 1.837500 0.0
1.800000 1.837500 0.0
1.842857 1.837500 0.0
1.885714 1.837500 0.0
1.928571 1.837500 0.0
1.971429 1.837500 0.0
2.014286 1.837500 0.0
2.057143 1.837500 0.0
2.100000 1.837500 0.0
2.142857 1.837500 0.0
2.185714 1.837500 0.0
2.228571 1.837500 0.0
2.271429 1.837500 0.0
2.314286 1.837500 0.0
2.357143 1.837500 0.0
2.400000 1.837500 0.0
2.442857 1.837500 0.0
2.485714 1.837500 0.0
2.528571 1.837500 0.0
2.571429 1.837500 0.0
2.614286 1.837500 0.0
2.657143 1.837500 0.0
2.700000 1.837500 0.0
2.742857 1.837500 0.0
2.785714 1.837500 0.0
2.828571 1.837500 0.0
2.871429 1.837500 0.0
2.914286 1.837500 0.0
2.957143 1.837500 0.0
3.000000 1.837500 0.0
1.500000 1.881250 0.0
1.542857 1.881250 0.0
1.585714 1.881250 0.0
1.628571 1.881250 0.0
1.671429 1.881250 0.0
1.714286 1.881250 0.0
1.757143 1.881250 0.0
1.800000 1.881250 0.0
1.842857 1.881250 0.0
1.885714 1.881250 0.0
1.928571 1.881250 0.0
1.971429 1.881250 0.0
2.014286 1.881250 0.0
2.057143 1.881250 0.0
2.100000 1.881250 0.0
2.142857 1.881250 0.0
2.185714 1.881250 0.0
2.228571 1.881250 0.0
2.271429 1.881250 0.0
2.314286 1.881250 0.0
2.357143 1.881250 0.0
2.400000 1.881250 0.0
2.442857 1.881250 0.0
2.485714 1.881250 0.0
2.528571 1.881250 0.0
2.571429 1.881250 0.0
2.614286 1.881250 0.0
2.657143 1.881250 0.0
2.700000 1.881250 0.0
2.742857 1.881250 0.0
2.785714 1.881250 0.0
2.828571 1.881250 0.0
2.871429 1.881250 0.0
2.914286 1.881250 0.0
2.957143 1.881250 0.0
3.000000 1.881250 0.0
1.500000 1.925000 0.0
1.542857 1.925000 0.0
1.585714 1.925000 0.0
1.628571 1.925000 0.0
1.671429 1.925000 0.0
1.714286 1.925000 0.0
1.757143 1.925000 0.0
1.800000 1.925000 0.0
1.842857 1.925000 0.0
1.885714 1.925000 0.0
1.928571 1.925000 0.0
1.971429 1.925000 0.0
2.014286 1.925000 0.0
2.057143 1.925000 0.0
2.100000 1.925000 0.0
2.142857 1.925000 0.0
2.185714 1.925000 0.0
2.228571 1.925000 0.0
2.271429 1.925000 0.0
2.314286 1.925000 0.0
2.357143 1.925000 0.0
2.400000 1.925000 0.0
2.442857 1.925000 0.0
2.485714 1.925000 0.0
2.528571 1.925000 0.0
2.571429 1.925000 0.0
2.614286 1.925000 0.0
2.657143 1.925000 0.0
2.700000 1.925000 0.0
2.742857 1.925000 0.0
2.785714 1.925000 0.0
2.828571 1.925000 0.0
2.871429 1.925000 0.0
2.914286 1.925000 0.0
2.957143 1.925000 0.0
3.000000 1.925000 0.0
1.500000 1.968750 0.0
1.542857 1.968750 0.0
1.585714 1.968750 0.0
1.628571 1.968750 0.0
1.671429 1.968750 0.0
1.714286 1.968750 0.0
1.757143 1.968750 0.0
1.800000 1.968750 0.0
1.842857 1.968750 0.0
1.885714 1.968750 0.0
1.928571 1.968750 0.0
1.971429 1.968750 0.0
2.014286 1.968750 0.0
2.057143 1.968750 0.0
2.100000 1.968750 0.0
2.142857 1.968750 0.0
2.185714 1.968750 0.0
2.228571 1.968750 0.0
2.271429 1.968750 0.0
2.314286 1.968750 0.0
2.357143 1.968750 0.0
2.400000 1.968750 0.0
2.442857 1.968750 0.0
2.485714 1.968750 0.0
2.528571 1.968750 0.0
2.571429 1.968750 0.0
2.614286 1.968750 0.0
2.657143 1.968750 0.0
2.700000 1.968750 0.0
2.742857 1.968750 0.0
2.785714 1.968750 0.0
2.828571 1.968750 0.0
2.871429 1.968750 0.0
2.914286 1.968750 0.0
2.957143 1.968750 0.0
3.000000 1.968750 0.0
1.500000 2.012500 0.0
1.542857 2.012500 0.0
1.585714 2.012500 0.0
1.628571 2.012500 0.0
1.671429 2.012500 0.0
1.714286 2.012500 0.0
1.757143 2.012500 0.0
1.800000 2.012500 0.0
1.842857 2.012500 0.0
1.885714 2.012500 0.0
1.928571 2.012500 0.0
1.971429 2.012500 0.0
2.014286 2.012500 0.0
2.057143 2.012500 0.0
2.100000 2.012500 0.0
2.142857 2.012500 0.0
2.185714 2.012500 0.0
2.228571 2.012500 0.0
2.271429 2.012500 0.0
2.314286 2.012500 0.0
2.357143 2.012500 0.0
2.400000 2.012500 0.0
2.442857 2.012500 0.0
2.485714 2.012500 0.0
2.528571 2.012500 0.0
2.571429 2.012500 0.0
2.614286 2.012500 0.0
2.657143 2.012500 0.0
2.700000 2.012500 0.0
2.742857 2.012500 0.0
2.785714 2.012500 0.0
2.828571 2.012500 0.0
2.871429 2.012500 0.0
2.914286 2.012500 0.0
2.957143 2.012500 0.0
3.000000 2.012500 0.0
1.500000 2.056250 0.0
1.542857 2.056250 0.0
1.585714 2.056250 0.0
1.628571 2.056250 0.0
1.671429 2.056250 0.0
1.714286 2.056250 0.0
1.757143 2.056250 0.0
1.800000 2.056250 0.0
1.842857 2.056250 0.0
1.885714 2.056250 0.0
1.928571 2.056250 0.0
1.971429 2.056250 0.0
2.014286 2.056250 0.0
2.057143 2.056250 0.0
2.100000 2.056250 0.0
2.142857 2.056250 0.0
2.185714 2.056250 0.0
2.228571 2.056250 0.0
2.271429 2.056250 0.0
2.314286 2.056250 0.0
2.357143 2.056250 0.0
2.400000 2.056250 0.0
2.442857 2.056250 0.0
2.485714 2.056250 0.0
2.528571 2.056250 0.0
2.571429 2.056250 0.0
2.614286 2.056250 0.0
2.657143 2.056250 0.0
2.700000 2.056250 0.0
2.742857 2.056250 0.0
2.785714 2.056250 0.0
2.828571 2.056250 0.0
2.871429 2.056250 0.0
2.914286 2.056250 0.0
2.957143 2.056250 0.0
3.000000 2.056250 0.0
1.500000 2.100000 0.0
1.542857 2.100000 0.0
1.585714 2.100000 0.0
1.628571 2.100000 0.0
1.671429 2.100000 0.0
1.714286 2.100000 0.0
1.757143 2.100000 0.0
1.800000 2.100000 0.0
1.842857 2.100000 0.0
1.885714 2.100000 0.0
1.928571 2.100000 0.0
1.971429 2.100000 0.0
2.014286 2.100000 0.0
2.057143 2.100000 0.0
2.100000 2.100000 0.0
2.142857 2.100000 0.0
2.185714 2.100000 0.0
2.228571 2.100000 0.0
2.271429 2.100000 0.0
2.314286 2.100000 0.0
2.357143 2.100000 0.0
2.400000 2.100000 0.0
2.442857 2.100000 0.0
2.485714 2.100000 0.0
2.528571 2.100000 0.0
2.571429 2.100000 0.0
2.614286 2.100000 0.0
2.657143 2.100000 0.0
2.700000 2.100000 0.0
2.742857 2.100000 0.0
2.785714 2.100000 0.0
2.828571 2.100000 0.0
2.871429 2.100000 0.0
2.914286 2.100000 0.0
2.957143 2.100000 0.0
3.000000 2.100000 0.0
1.500000 2.143750 0.0
1.542857 2.143750 0.0
1.585714 2.143750 0.0
1.628571 2.143750 0.0
1.671429 2.143750 0.0
1.714286 2.143750 0.0
1.757143 2.143750 0.0
1.800000 2.143750 0.0
1.842857 2.143750 0.0
1.885714 2.143750 0.0
1.928571 2.143750 0.0
1.971429 2.143750 0.0
2.014286 2.143750 0.0
2.057143 2.143750 0.0
2.100000 2.143750 0.0
2.142857 2.143750 0.0
2.185714 2.143750 0.0
2.228571 2.143750 0.0
2.271429 2.143750 0.0
2.314286 2.143750 0.0
2.357143 2.143750 0.0
2.400000 2.143750 0.0
2.442857 2.143750 0.0
2.485714 2.143750 0.0
2.528571 2.143750 0.0
2.571429 2.143750 0.0
2.614286 2.143750 0.0
2.657143 2.143750 0.0
2.700000 2.143750 0.0
2.742857 2.143750 0.0
2.785714 2.143750 0.0
2.828571 2.143750 0.0
2.871429 2.143750 0.0
2.914286 2.143750 0.0
2.957143 2.143750 0.0
3.000000 2.143750 0.0
1.500000 2.187500 0.0
1.542857 2.187500 0.0
1.585714 2.187500 0.0
1.628571 2.187500 0.0
1.671429 2.187500 0.0
1.714286 2.187500 0.0
1.757143 2.187500 0.0
1.800000 2.187500 0.0
1.842857 2.187500 0.0
1.885714 2.187500 0.0
1.928571 2.187500 0.0
1.971429 2.187500 0.0
2.014286 2.187500 0.0
2.057143 2.187500 0.0
2.100000 2.187500 0.0
2.142857 2.187500 0.0
2.185714 2.187500 0.0
2.228571 2.187500 0.0
2.271429 2.187500 0.0
2.314286 2.187500 0.0
2.357143 2.187500 0.0
2.400000 2.187500 0.0
2.442857 2.187500 0.0
2.485714 2.187500 0.0
2.528571 2.187500 0.0
2.571429 2.187500 0.0
2.614286 2.187500 0.0
2.657143 2.187500 0.0
2.700000 2.187500 0.0
2.742857 2.187500 0.0
2.785714 2.187500 0.0
2.828571 2.187500 0.0
2.871429 2.187500 0.0
2.914286 2.187500 0.0
2.957143 2.187500 0.0
3.000000 2.187500 0.0
1.500000 2.231250 0.0
1.542857 2.231250 0.0
1.585714 2.231250 0.0
1.628571 2.231250 0.0
1.671429 2.231250 0.0
1.714286 2.231250 0.0
1.757143 2.231250 0.0
1.800000 2.231250 0.0
1.842857 2.231250 0.0
1.885714 2.231250 0.0
1.928571 2.231250 0.0
1.971429 2.231250 0.0
2.014286 2.231250 0.0
2.057143 2.231250 0.0
2.100000 2.231250 0.0
2.142857 2.231250 0.0
2.185714 2.231250 0.0
2.228571 2.231250 0.0
2.271429 2.231250 0.0
2.314286 2.231250 0.0
2.357143 2.231250 0.0
2.400000 2.231250 0.0
2.442857 2.231250 0.0
2.485714 2.231250 0.0
2.528571 2.231250 0.0
2.571429 2.231250 0.0
2.614286 2.231250 0.0
2.657143 2.231250 0.0
2.700000 2.231250 0.0
2.742857 2.231250 0.0
2.785714 2.231250 0.0
2.828571 2.231250 0.0
2.871429 2.231250 0.0
2.914286 2.231250 0.0
2.957143 2.231250 0.0
3.000000 2.231250 0.0
1.500000 2.275000 0.0
1.542857 2.275000 0.0
1.585714 2.275000 0.0
1.628571 2.275000 0.0
1.671429 2.275000 0.0
1.714286 2.275000 0.0
1.757143 2.275000 0.0
1.800000 2.275000 0.0
1.842857 2.275000 0.0
1.885714 2.275000 0.0
1.928571 2.275000 0.0
1.971429 2.275000 0.0
2.014286 2.275000 0.0
2.057143 2.275000 0.0
2.100000 2.275000 0.0
2.142857 2.275000 0.0
2.185714 2.275000 0.0
2.228571 2.275000 0.0
2.271429 2.275000 0.0
2.314286 2.275000 0.0
2.357143 2.275000 0.0
2.400000 2.275000 0.0
2.442857 2.275000 0.0
2.485714 2.275000 0.0
2.528571 2.275000 0.0
2.571429 2.275000 0.0
2.614286 2.275000 0.0
2.657143 2.275000 0.0
2.700000 2.275000 0.0
2.742857 2.275000 0.0
2.785714 2.275000 0.0
2.828571 2.275000 0.0
2.871429 2.275000 0.0
2.914286 2.275000 0.0
2.957143 2.275000 0.0
3.000000 2.275000 0.0
1.500000 2.318750 0.0
1.542857 2.318750 0.0
1.585714 2.318750 0.0
1.628571 2.318750 0.0
1.671429 2.318750 0.0
1.714286 2.318750 0.0
1.757143 2.318750 0.0
1.800000 2.318750 0.0
1.842857 2.318750 0.0
1.885714 2.318750 0.0
1.928571 2.318750 0.0
1.971429 2.318750 0.0
2.014286 2.318750 0.0
2.057143 2.318750 0.0
2.100000 2.318750 0.0
2.142857 2.318750 0.0
2.185714 2.318750 0.0
2.228571 2.318750 0.0
2.271429 2.318750 0.0
2.314286 2.318750 0.0
2.357143 2.318750 0.0
2.400000 2.318750 0.0
2.442857 2.318750 0.0
2.485714 2.318750 0.0
2.528571 2.318750 0.0
2.571429 2.318750 0.0
2.614286 2.318750 0.0
2.657143 2.318750 0.0
2.700000 2.318750 0.0
2.742857 2.318750 0.0
2.785714 2.318750 0.0
2.828571 2.318750 0.0
2.871429 2.318750 0.0
2.914286 2.318750 0.0
2.957143 2.318750 0.0
3.000000 2.318750 0.0
1.500000 2.362500 0.0
1.542857 2.362500 0.0
1.585714 2.362500 0.0
1.628571 2.362500 0.0
1.671429 2.362500 0.0
1.714286 2.362500 0.0
1.757143 2.362500 0.0
1.800000 2.362500 0.0
1.842857 2.362500 0.0
1.885714 2.362500 0.0
1.928571 2.362500 0.0
1.971429 2.362500 0.0
2.014286 2.362500 0.0
2.057143 2.362500 0.0
2.100000 2.362500 0.0
2.142857 2.362500 0.0
2.185714 2.362500 0.0
2.228571 2.362500 0.0
2.271429 2.362500 0.0
2.314286 2.362500 0.0
2.357143 2.362500 0.0
2.400000 2.362500 0.0
2.442857 2.362500 0.0
2.485714 2.362500 0.0
2.528571 2.362500 0.0
2.571429 2.362500 0.0
2.614286 2.362500 0.0
2.657143 2.362500 0.0
2.700000 2.362500 0.0
2.742857 2.362500 0.0
2.785714 2.362500 0.0
2.828571 2.362500 0.0
2.871429 2.362500 0.0
2.914286 2.362500 0.0
2.957143 2.362500 0.0
3.000000 2.362500 0.0
1.500000 2.406250 0.0
1.542857 2.406250 0.0
1.585714 2.406250 0.0
1.628571 2.406250 0.0
1.671429 2.406250 0.0
1.714286 2.406250 0.0
1.757143 2.406250 0.0
1.800000 2.406250 0.0
1.842857 2.406250 0.0
1.885714 2.406250 0.0
1.928571 2.406250 0.0
1.971429 2.406250 0.0
2.014286 2.406250 0.0
2.057143 2.406250 0.0
2.100000 2.406250 0.0
2.142857 2.406250 0.0
2.185714 2.406250 0.0
2.228571 2.406250 0.0
2.271429 2.406250 0.0
2.314286 2.406250 0.0
2.357143 2.406250 0.0
2.400000 2.406250 0.0
2.442857 2.406250 0.0
2.485714 2.406250 0.0
2.528571 2.406250 0.0
2.571429 2.406250 0.0
2.614286 2.406250 0.0
2.657143 2.406250 0.0
2.700000 2.406250 0.0
2.742857 2.406250 0.0
2.785714 2.406250 0.0
2.828571 2.406250 0.0
2.871429 2.406250 0.0
2.914286 2.406250 0.0
2.957143 2.406250 0.0
3.000000 2.406250 0.0
1.500000 2.450000 0.0
1.542857 2.450000 0.0
1.585714 2.450000 0.0
1.628571 2.450000 0.0
1.671429 2.450000 0.0
1.714286 2.450000 0.0
1.757143 2.450000 0.0
1.800000 2.450000 0.0
1.842857 2.450000 0.0
1.885714 2.450000 0.0
1.928571 2.450000 0.0
1.971429 2.450000 0.0
2.014286 2.450000 0.0
2.057143 2.450000 0.0
2.100000 2.450000 0.0
2.142857 2.450000 0.0
2.185714 2.450000 0.0
2.228571 2.450000 0.0
2.271429 2.450000 0.0
2.314286 2.450000 0.0
2.357143 2.450000 0.0
2.400000 2.450000 0.0
2.442857 2.450000 0.0
2.485714 2.450000 0.0
2.528571 2.450000 0.0
2.571429 2.450000 0.0
2.614286 2.450000 0.0
2.657143 2.450000 0.0
2.700000 2.450000 0.0
2.742857 2.450000 0.0
2.785714 2.450000 0.0
2.828571 2.450000 0.0
2.871429 2.450000 0.0
2.914286 2.450000 0.0
2.957143 2.450000 0.0
3.000000 2.450000 0.0
1.500000 2.493750 0.0
1.542857 2.493750 0.0
1.585714 2.493750 0.0
1.628571 2.493750 0.0
1.671429 2.493750 0.0
1.714286 2.493750 0.0
1.757143 2.493750 0.0
1.800000 2.493750 0.0
1.842857 2.493750 0.0
1.885714 2.493750 0.0
1.928571 2.493750 0.0
1.971429 2.493750 0.0
2.014286 2.493750 0.0
2.057143 2.493750 0.0
2.100000 2.493750 0.0
2.142857 2.493750 0.0
2.185714 2.493750 0.0
2.228571 2.493750 0.0
2.271429 2.493750 0.0
2.314286 2.493750 0.0
2.357143 2.493750 0.0
2.400000 2.493750 0.0
2.442857 2.493750 0.0
2.485714 2.493750 0.0
2.528571 2.493750 0.0
2.571429 2.493750 0.0
2.614286 2.493750 0.0
2.657143 2.493750 0.0
2.700000 2.493750 0.0
2.742857 2.493750 0.0
2.785714 2.493750 0.0
2.828571 2.493750 0.0
2.871429 2.493750 0.0
2.914286 2.493750 0.0
2.957143 2.493750 0.0
3.000000 2.493750 0.0
1.500000 2.537500 0.0
1.542857 2.537500 0.0
1.585714 2.537500 0.0
1.628571 2.537500 0.0
1.671429 2.537500 0.0
1.714286 2.537500 0.0
1.757143 2.537500 0.0
1.800000 2.537500 0.0
1.842857 2.537500 0.0
1.885714 2.537500 0.0
1.928571 2.537500 0.0
1.971429 2.537500 0.0
2.014286 2.537500 0.0
2.057143 2.537500 0.0
2.100000 2.537500 0.0
2.142857 2.537500 0.0
2.185714 2.537500 0.0
2.228571 2.537500 0.0
2.271429 2.537500 0.0
2.314286 2.537500 0.0
2.357143 2.537500 0.0
2.400000 2.537500 0.0
2.442857 2.537500 0.0
2.485714 2.537500 0.0
2.528571 2.537500 0.0
2.571429 2.537500 0.0
2.614286 2.537500 0.0
2.657143 2.537500 0.0
2.700000 2.537500 0.0
2.742857 2.537500 0.0
2.785714 2.537500 0.0
2.828571 2.537500 0.0
2.871429 2.537500 0.0
2.914286 2.537500 0.0
2.957143 2.537500 0.0
3.000000 2.537500 0.0
1.500000 2.581250 0.0
1.542857 2.581250 0.0
1.585714 2.581250 0.0
1.628571 2.581250 0.0
1.671429 2.581250 0.0
1.714286 2.581250 0.0
1.757143 2.581250 0.0
1.800000 2.581250 0.0
1.842857 2.581250 0.0
1.885714 2.581250 0.0
1.928571 2.581250 0.0
1.971429 2.581250 0.0
2.014286 2.581250 0.0
2.057143 2.581250 0.0
2.100000 2.581250 0.0
2.142857 2.581250 0.0
2.185714 2.581250 0.0
2.228571 2.581250 0.0
2.271429 2.581250 0.0
2.314286 2.581250 0.0
2.357143 2.581250 0.0
2.400000 2.581250 0.0
2.442857 2.581250 0.0
2.485714 2.581250 0.0
2.528571 2.581250 0.0
2.571429 2.581250 0.0
2.614286 2.581250 0.0
2.657143 2.581250 0.0
2.700000 2.581250 0.0
2.742857 2.581250 0.0
2.785714 2.581250 0.0
2.828571 2.581250 0.0
2.871429 2.581250 0.0
2.914286 2.581250 0.0
2.957143 2.581250 0.0
3.000000 2.581250 0.0
1.500000 2.625000 0.0
1.542857 2.625000 0.0
1.585714 2.625000 0.0
1.628571 2.625000 0.0
1.671429 2.625000 0.0
1.714286 2.625000 0.0
1.757143 2.625000 0.0
1.800000 2.625000 0.0
1.842857 2.625000 0.0
1.885714 2.625000 0.0
1.928571 2.625000 0.0
1.971429 2.625000 0.0
2.014286 2.625000 0.0
2.057143 2.625000 0.0
2.100000 2.625000 0.0
2.142857 2.625000 0.0
2.185714 2.625000 0.0
2.228571 2.625000 0.0
2.271429 2.625000 0.0
2.314286 2.625000 0.0
2.357143 2.625000 0.0
2.400000 2.625000 0.0
2.442857 2.625000 0.0
2.485714 2.625000 0.0
2.528571 2.625000 0.0
2.571429 2.625000 0.0
2.614286 2.625000 0.0
2.657143 2.625000 0.0
2.700000 2.625000 0.0
2.742857 2.625000 0.0
2.785714 2.625000 0.0
2.828571 2.625000 0.0
2.871429 2.625000 0.0
2.914286 2.625000 0.0
2.957143 2.625000 0.0
3.000000 2.625000 0.0
</DataArray></Points>
<PointData>
<DataArray NumberOfComponents="1" format="ascii" type ="Float32" Name="phi">
-0.366839
-0.360608
-0.351098
-0.335355
-0.312396
-0.282966
-0.248158
-0.209766
-0.169587
-0.128740
-0.087639
-0.046416
-0.008601
0.029509
0.071703
0.114239
0.156805
0.199405
0.242033
0.284690
0.327374
0.370079
0.412800
0.455535
0.498284
0.541048
0.583824
0.626609
0.669326
0.709487
0.737850
0.748583
0.749502
0.748971
0.748531
0.737396
-0.410236
-0.403353
-0.391320
-0.370200
-0.340050
-0.303659
-0.263866
-0.222772
-0.181270
-0.139584
-0.097782
-0.055854
-0.014983
0.025805
0.068128
0.110936
0.153740
0.196550
0.239368
0.282194
0.325027
0.367865
0.410708
0.453554
0.496405
0.539260
0.582120
0.624944
0.665325
0.694172
0.705410
0.706432
0.705774
0.705227
0.704783
0.704584
-0.441911
-0.435556
-0.416461
-0.387293
-0.350788
-0.310630
-0.269202
-0.227430
-0.185501
-0.143424
-0.101195
-0.058797
-0.015963
0.026773
0.069278
0.111997
0.154727
0.197474
0.240238
0.283014
0.325800
0.368595
0.411401
0.454216
0.497038
0.539866
0.582690
0.622977
0.651585
0.662642
0.663525
0.662712
0.662034
0.661483
0.661036
0.660834
-0.431257
-0.426866
-0.405958
-0.376216
-0.340709
-0.301921
-0.261623
-0.220669
-0.179338
-0.137747
-0.095977
-0.054226
-0.011172
0.032141
0.074383
0.116727
0.159137
0.201604
0.244118
0.286671
0.329257
0.371873
0.414518
0.457187
0.499875
0.542604
0.582460
0.610110
0.620327
0.620817
0.619810
0.618977
0.618294
0.617739
0.617288
0.617085
-0.389400
-0.386385
-0.370847
-0.347493
-0.317907
-0.283445
-0.245857
-0.206670
-0.166693
-0.126177
-0.085216
-0.044046
-0.001465
0.041269
0.082865
0.124637
0.166537
0.208552
0.250667
0.292862
0.335121
0.377442
0.419822
0.462250
0.504788
0.543837
0.569754
0.578490
0.578355
0.577102
0.576080
0.575241
0.574553
0.573994
0.573540
0.573335
-0.346707
-0.344294
-0.331851
-0.312668
-0.288109
-0.258671
-0.224992
-0.188363
-0.150181
-0.111274
-0.072041
-0.030807
0.012076
0.053675
0.094438
0.135478
0.176721
0.218155
0.259752
0.301471
0.343292
0.385213
0.427241
0.469478
0.507220
0.530538
0.537176
0.536191
0.534641
0.533379
0.532349
0.531504
0.530812
0.530250
0.529792
0.529586
-0.303573
-0.301602
-0.291226
-0.274609
-0.253336
-0.228186
-0.199082
-0.166035
-0.130058
-0.092648
-0.054846
-0.013449
0.029114
0.068984
0.108794
0.148970
0.189446
0.230202
0.271184
0.312333
0.353635
0.395086
0.436561
0.472128
0.492193
0.496445
0.494420
0.492491
0.490926
0.489655
0.488618
0.487767
0.487070
0.486505
0.486044
0.485836
-0.260161
-0.258559
-0.249756
-0.235005
-0.215832
-0.193569
-0.168359
-0.139615
-0.107085
-0.071537
-0.032758
0.009118
0.049345
0.087271
0.125866
0.164978
0.204550
0.244515
0.284774
0.325258
0.365966
0.405774
0.437748
0.453871
0.455979
0.453180
0.450739
0.448790
0.447211
0.445929
0.444885
0.444029
0.443328
0.442759
0.442296
0.442086
-0.216597
-0.215279
-0.207710
-0.194571
-0.177041
-0.156653
-0.133883
-0.108499
-0.079703
-0.045854
-0.005649
0.035003
0.071935
0.108457
0.145714
0.183617
0.222113
0.261101
0.300606
0.340438
0.377226
0.403581
0.414901
0.415339
0.412430
0.409527
0.407058
0.405087
0.403494
0.402202
0.401151
0.400291
0.399585
0.399014
0.398548
0.398337
-0.172965
-0.171850
-0.165257
-0.153615
-0.137559
-0.118560
-0.097340
-0.073814
-0.046321
-0.011914
0.026101
0.061884
0.096404
0.131782
0.167868
0.204627
0.242037
0.279978
0.318216
0.350045
0.368969
0.375178
0.374110
0.371703
0.368796
0.365876
0.363376
0.361384
0.359776
0.358474
0.357416
0.356551
0.355842
0.355268
0.354800
0.354587
-0.129303
-0.128341
-0.122506
-0.112274
-0.097630
-0.079689
-0.059723
-0.036487
-0.007453
0.025400
0.057547
0.089422
0.122626
0.156811
0.191791
0.227491
0.263872
0.297518
0.321928
0.333163
0.334286
0.332370
0.330433
0.328061
0.325164
0.322223
0.319694
0.317679
0.316056
0.314745
0.313681
0.312811
0.312099
0.311522
0.311052
0.310838
-0.085627
-0.084797
-0.079529
-0.070601
-0.057384
-0.040131
-0.019876
0.004381
0.032554
0.060838
0.088878
0.118942
0.150561
0.183748
0.217829
0.250876
0.276415
0.291065
0.295309
0.293056
0.290623
0.288669
0.286753
0.284419
0.281537
0.278571
0.276011
0.273973
0.272336
0.271015
0.269945
0.269071
0.268355
0.267776
0.267304
0.267088
-0.041966
-0.041253
-0.036400
-0.027738
-0.014802
0.002122
0.021900
0.044472
0.069325
0.095297
0.122180
0.150649
0.180660
0.211889
0.236811
0.251756
0.257281
0.255267
0.252256
0.249390
0.246924
0.244964
0.243066
0.240773
0.237908
0.234918
0.232327
0.230267
0.228615
0.227285
0.226208
0.225330
0.224611
0.224030
0.223555
0.223339
0.002897
0.003547
0.008101
0.016600
0.028851
0.044580
0.062537
0.082341
0.105171
0.130232
0.156321
0.183542
0.204529
0.217365
0.222397
0.219349
0.215140
0.211634
0.208606
0.205719
0.203223
0.201257
0.199374
0.197122
0.194278
0.191265
0.188644
0.186560
0.184893
0.183553
0.182470
0.181588
0.180866
0.180283
0.179807
0.179589
0.047783
0.048391
0.052630
0.060308
0.071060
0.085175
0.102152
0.120989
0.142183
0.164173
0.179936
0.189963
0.192658
0.187088
0.180978
0.175855
0.171564
0.168001
0.164956
0.162049
0.159523
0.157548
0.155677
0.153466
0.150648
0.147613
0.144960
0.142853
0.141171
0.139821
0.138732
0.137846
0.137122
0.136537
0.136059
0.135840
0.091486
0.092037
0.095933
0.103047
0.113085
0.126213
0.142169
0.154262
0.160861
0.166177
0.165137
0.158339
0.151069
0.143863
0.137606
0.132372
0.127995
0.124370
0.121304
0.118380
0.115824
0.113840
0.111977
0.109807
0.107016
0.103961
0.101278
0.099145
0.097448
0.096089
0.094994
0.094104
0.093377
0.092790
0.092311
0.092090
0.135210
0.135714
0.139324
0.142831
0.144470
0.146584
0.150037
0.148218
0.139496
0.130403
0.122411
0.115256
0.108009
0.100662
0.094252
0.088900
0.084433
0.080740
0.077651
0.074699
0.072093
0.070093
0.068236
0.066105
0.063348
0.060282
0.057573
0.055419
0.053709
0.052344
0.051245
0.050354
0.049626
0.049039
0.048559
0.048338
0.143371
0.143129
0.143057
0.140223
0.133302
0.124906
0.116507
0.107136
0.096849
0.087530
0.079352
0.072227
0.065019
0.057506
0.050925
0.045442
0.040880
0.037113
0.033997
0.031231
0.028865
0.026968
0.025197
0.023180
0.020445
0.017297
0.014533
0.012331
0.010567
0.009142
0.007978
0.007018
0.006219
0.005562
0.005024
0.004780
0.107786
0.106853
0.103345
0.097654
0.090325
0.081986
0.073957
0.064882
0.054333
0.044722
0.036321
0.028858
0.021367
0.013815
0.007260
0.001814
-0.002696
-0.006411
-0.009463
-0.011965
-0.014027
-0.015796
-0.017477
-0.019433
-0.022189
-0.025445
-0.028363
-0.030705
-0.032556
-0.034045
-0.035277
-0.036307
-0.037180
-0.037909
-0.038506
-0.038773
0.064143
0.063268
0.059954
0.054520
0.047379
0.039046
0.030437
0.020720
0.010082
0.000540
-0.007757
-0.015309
-0.022753
-0.029992
-0.036407
-0.041813
-0.046275
-0.049932
-0.052930
-0.055391
-0.057430
-0.059188
-0.060866
-0.062847
-0.065600
-0.068870
-0.071909
-0.074372
-0.076271
-0.077773
-0.079012
-0.080047
-0.080922
-0.081654
-0.082253
-0.082521
0.018529
0.017692
0.014525
0.009315
0.002409
-0.005744
-0.014784
-0.024518
-0.034379
-0.043596
-0.051799
-0.059154
-0.066257
-0.073251
-0.079707
-0.085255
-0.089822
-0.093547
-0.096593
-0.099085
-0.101141
-0.102908
-0.104586
-0.106546
-0.109254
-0.112495
-0.115556
-0.118062
-0.119985
-0.121500
-0.122746
-0.123785
-0.124664
-0.125399
-0.125999
-0.115331
</DataArray>
<DataArray NumberOfComponents="1" format="ascii" type ="Float32" Name="u">
0.000711
0.001614
0.002459
0.003211
0.003835
0.004299
0.004577
0.004652
0.004533
0.004280
0.004032
0.004012
0.004553
0.005862
0.006284
0.005751
0.004731
0.003559
0.002398
0.001333
0.000428
-0.000279
-0.000775
-0.001081
-0.001237
-0.001290
-0.001278
-0.001230
-0.001165
-0.001094
-0.001023
-0.000959
-0.000904
-0.000864
-0.000842
-0.000842
0.000982
0.001945
0.002850
0.003667
0.004365
0.004921
0.005315
0.005548
0.005660
0.005769
0.006117
0.007083
0.009002
0.010779
0.011123
0.010378
0.009161
0.007802
0.006444
0.005159
0.003993
0.002985
0.002161
0.001523
0.001055
0.000729
0.000511
0.000372
0.000289
0.000244
0.000226
0.000225
0.000233
0.000241
0.000243
0.000243
0.001275
0.002287
0.003241
0.004115
0.004886
0.005536
0.006058
0.006470
0.006844
0.007362
0.008384
0.010444
0.013631
0.015641
0.015730
0.014715
0.013289
0.011747
0.010207
0.008729
0.007353
0.006111
0.005028
0.004118
0.003380
0.002802
0.002360
0.002031
0.001791
0.001621
0.001506
0.001433
0.001392
0.001372
0.001365
0.001365
0.001566
0.002616
0.003611
0.004538
0.005385
0.006142
0.006816
0.007444
0.008131
0.009117
0.010864
0.014024
0.018501
0.020425
0.020069
0.018724
0.017061
0.015322
0.013600
0.011945
0.010388
0.008957
0.007673
0.006553
0.005600
0.004812
0.004175
0.003672
0.003284
0.002992
0.002781
0.002635
0.002545
0.002497
0.002480
0.002480
0.001828
0.002908
0.003940
0.004922
0.005854
0.006740
0.007604
0.008505
0.009587
0.011144
0.013692
0.017811
0.023588
0.024931
0.023979
0.022266
0.020348
0.018405
0.016508
0.014693
0.012986
0.011409
0.009978
0.008705
0.007596
0.006651
0.005862
0.005218
0.004704
0.004306
0.004007
0.003796
0.003658
0.003583
0.003555
0.003555
0.002032
0.003139
0.004210
0.005256
0.006292
0.007340
0.008442
0.009691
0.011279
0.013573
0.017153
0.022411
0.028405
0.028737
0.027183
0.025124
0.022968
0.020842
0.018796
0.016858
0.015047
0.013376
0.011853
0.010487
0.009281
0.008235
0.007344
0.006601
0.005994
0.005513
0.005145
0.004878
0.004700
0.004600
0.004562
0.004562
0.002141
0.003284
0.004409
0.005541
0.006712
0.007963
0.009364
0.011047
0.013267
0.016465
0.021215
0.028102
0.032226
0.031473
0.029427
0.027092
0.024749
0.022491
0.020355
0.018356
0.016502
0.014799
0.013249
0.011851
0.010607
0.009515
0.008572
0.007773
0.007109
0.006574
0.006158
0.005851
0.005644
0.005524
0.005477
0.005477
0.002125
0.003328
0.004535
0.005788
0.007137
0.008644
0.010414
0.012630
0.015631
0.019929
0.026088
0.033189
0.034672
0.033001
0.030571
0.028039
0.025592
0.023289
0.021147
0.019168
0.017349
0.015684
0.014168
0.012797
0.011568
0.010480
0.009529
0.008713
0.008027
0.007466
0.007024
0.006694
0.006468
0.006336
0.006283
0.006283
0.001961
0.003264
0.004597
0.006020
0.007602
0.009428
0.011644
0.014499
0.018455
0.024077
0.031416
0.036014
0.035510
0.033203
0.030546
0.027948
0.025520
0.023286
0.021241
0.019371
0.017661
0.016097
0.014669
0.013370
0.012199
0.011151
0.010227
0.009426
0.008745
0.008183
0.007735
0.007397
0.007163
0.007026
0.006969
0.006969
0.001638
0.003096
0.004610
0.006262
0.008149
0.010364
0.013116
0.016687
0.021886
0.028593
0.034982
0.036455
0.034733
0.032122
0.029460
0.026975
0.024712
0.022665
0.020810
0.019121
0.017575
0.016155
0.014850
0.013653
0.012562
0.011577
0.010701
0.009935
0.009278
0.008731
0.008293
0.007960
0.007728
0.007591
0.007534
0.007534
0.001153
0.002832
0.004585
0.006528
0.008833
0.011504
0.014921
0.019541
0.025516
0.031823
0.035402
0.034926
0.032688
0.030113
0.027664
0.025447
0.023463
0.021683
0.020073
0.018604
0.017251
0.015994
0.014825
0.013737
0.012734
0.011819
0.010998
0.010275
0.009653
0.009133
0.008714
0.008395
0.008172
0.008040
0.007984
0.007984
0.000506
0.002468
0.004504
0.006763
0.009744
0.013041
0.017137
0.022369
0.027829
0.032227
0.033486
0.032186
0.029969
0.027685
0.025588
0.023720
0.022062
0.020576
0.019229
0.017989
0.016832
0.015740
0.014702
0.013718
0.012794
0.011941
0.011171
0.010492
0.009907
0.009418
0.009024
0.008725
0.008516
0.008391
0.008339
0.008339
-0.000382
0.002019
0.004519
0.007274
0.010664
0.014509
0.018940
0.023673
0.027940
0.030497
0.030591
0.029113
0.027173
0.025274
0.023560
0.022046
0.020705
0.019504
0.018410
0.017394
0.016430
0.015497
0.014583
0.013686
0.012820
0.012010
0.011277
0.010633
0.010083
0.009627
0.009262
0.008986
0.008794
0.008680
0.008631
0.008631
-0.001193
0.001675
0.004694
0.007972
0.011303
0.015221
0.019436
0.023439
0.026597
0.028008
0.027606
0.026245
0.024643
0.023111
0.021740
0.020536
0.019479
0.018537
0.017683
0.016886
0.016117
0.015349
0.014559
0.013736
0.012898
0.012097
0.011379
0.010759
0.010239
0.009815
0.009481
0.009231
0.009059
0.008957
0.008914
0.008914
-0.001494
0.001591
0.004819
0.008223
0.011574
0.015297
0.019057
0.022432
0.024723
0.025465
0.024937
0.023796
0.022499
0.021260
0.020160
0.019211
0.018394
0.017683
0.017053
0.016475
0.015917
0.015341
0.014704
0.013964
0.013120
0.012281
0.011547
0.010940
0.010449
0.010060
0.009761
0.009541
0.009392
0.009304
0.009267
0.009267
-0.001511
0.001603
0.004818
0.008136
0.011518
0.015015
0.018345
0.021090
0.022743
0.023172
0.022723
0.021836
0.020774
0.019727
0.018814
0.018056
0.017433
0.016918
0.016487
0.016115
0.015776
0.015431
0.015018
0.014437
0.013569
0.012626
0.011856
0.011263
0.010812
0.010469
0.010213
0.010028
0.009904
0.009833
0.009802
0.009802
-0.001517
0.001574
0.004746
0.007995
0.011284
0.014520
0.017424
0.019621
0.020857
0.021210
0.020977
0.020390
0.019501
0.018519
0.017712
0.017091
0.016615
0.016244
0.015954
0.015730
0.015560
0.015425
0.015286
0.015020
0.014234
0.013133
0.012366
0.011837
0.011461
0.011186
0.010986
0.010844
0.010750
0.010697
0.010674
0.010674
-0.001507
0.001533
0.004638
0.007794
0.010938
0.013917
0.016441
0.018168
0.019102
0.019490
0.019549
0.019364
0.018692
0.017648
0.016928
0.016436
0.016076
0.015794
0.015562
0.015370
0.015216
0.015104
0.015025
0.014914
0.014421
0.013629
0.013137
0.012807
0.012568
0.012389
0.012254
0.012157
0.012093
0.012058
0.012043
0.012043
-0.001427