<VTKFile type="StructuredGrid" version="0.1" byte_order="LittleEndian">
<StructuredGrid WholeExtent="1 71 1 81 0 0">
<Piece Extent="36 71 21 41 0 0">
<PointData></PointData>
<CellData></CellData>
<Points>
<DataArray NumberOfComponents="3" format="ascii" type ="Float32" Name="mesh">
1.500000 0.875000 0.0
1.542857 0.875000 0.0
1.585714 0.875000 0.0
1.628571 0.875000 0.0
1.671429 0.875000 0.0
1.714286 0.875000 0.0
1.757143 0.875000 0.0
1.800000 0.875000 0.0
1.842857 0.875000 0.0
1.885714 0.875000 0.0
1.928571 0.875000 0.0
1.971429 0.875000 0.0
2.014286 0.875000 0.0
2.057143 0.875000 0.0
2.100000 0.875000 0.0
2.142857 0.875000 0.0
2.185714 0.875000 0.0
2.228571 0.875000 0.0
2.271429 0.875000 0.0
2.314286 0.875000 0.0
2.357143 0.875000 0.0
2.400000 0.875000 0.0
2.442857 0.875000 0.0
2.485714 0.875000 0.0
2.528571 0.875000 0.0
2.571429 0.875000 0.0
2.614286 0.875000 0.0
2.657143 0.875000 0.0
2.700000 0.875000 0.0
2.742857 0.875000 0.0
2.785714 0.875000 0.0
2.828571 0.875000 0.0
2.871429 0.875000 0.0
2.914286 0.875000 0.0
2.957143 0.875000 0.0
3.000000 0.875000 0.0
1.500000 0.918750 0.0
1.542857 0.918750 0.0
1.585714 0.918750 0.0
1.628571 0.918750 0.0
1.671429 0.918750 0.0
1.714286 0.918750 0.0
1.757143 0.918750 0.0
1.800000 0.918750 0.0
1.842857 0.918750 0.0
1.885714 0.918750 0.0
1.928571 0.918750 0.0
1.971429 0.918750 0.0
2.014286 0.918750 0.0
2.057143 0.918750 0.0
2.100000 0.918750 0.0
2.142857 0.918750 0.0
2.185714 0.918750 0.0
2.228571 0.918750 0.0
2.271429 0.918750 0.0
2.314286 0.918750 0.0
2.357143 0.918750 0.0
2.400000 0.918750 0.0
2.442857 0.918750 0.0
2.485714 0.918750 0.0
2.528571 0.918750 0.0
2.571429 0.918750 0.0
2.614286 0.918750 0.0
2.657143 0.918750 0.0
2.700000 0.918750 0.0
2.742857 0.918750 0.0
2.785714 0.918750 0.0
2.828571 0.918750 0.0
2.871429 0.918750 0.0
2.914286 0.918750 0.0
2.957143 0.918750 0.0
3.000000 0.918750 0.0
1.500000 0.962500 0.0
1.542857 0.962500 0.0
1.585714 0.962500 0.0
1.628571 0.962500 0.0
1.671429 0.962500 0.0
1.714286 0.962500 0.0
1.757143 0.962500 0.0
1.800000 0.962500 0.0
1.842857 0.962500 0.0
1.885714 0.962500 0.0
1.928571 0.962500 0.0
1.971429 0.962500 0.0
2.014286 0.962500 0.0
2.057143 0.962500 0.0
2.100000 0.962500 0.0
2.142857 0.962500 0.0
2.185714 0.962500 0.0
2.228571 0.962500 0.0
2.271429 0.962500 0.0
2.314286 0.962500 0.0
2.357143 0.962500 0.0
2.400000 0.962500 0.0
2.442857 0.962500 0.0
2.485714 0.962500 0.0
2.528571 0.962500 0.0
2.571429 0.962500 0.0
2.614286 0.962500 0.0
2.657143 0.962500 0.0
2.700000 0.962500 0.0
2.742857 0.962500 0.0
2.785714 0.962500 0.0
2.828571 0.962500 0.0
2.871429 0.962500 0.0
2.914286 0.962500 0.0
2.957143 0.962500 0.0
3.000000 0.962500 0.0
1.500000 1.006250 0.0
1.542857 1.006250 0.0
1.585714 1.006250 0.0
1.628571 1.006250 0.0
1.671429 1.006250 0.0
1.714286 1.006250 0.0
1.757143 1.006250 0.0
1.800000 1.006250 0.0
1.842857 1.006250 0.0
1.885714 1.006250 0.0
1.928571 1.006250 0.0
1.971429 1.006250 0.0
2.014286 1.006250 0.0
2.057143 1.006250 0.0
2.100000 1.006250 0.0
2.142857 1.006250 0.0
2.185714 1.006250 0.0
2.228571 1.006250 0.0
2.271429 1.006250 0.0
2.314286 1.006250 0.0
2.357143 1.006250 0.0
2.400000 1.006250 0.0
2.442857 1.006250 0.0
2.485714 1.006250 0.0
2.528571 1.006250 0.0
2.571429 1.006250 0.0
2.614286 1.006250 0.0
2.657143 1.006250 0.0
2.700000 1.006250 0.0
2.742857 1.006250 0.0
2.785714 1.006250 0.0
2.828571 1.006250 0.0
2.871429 1.006250 0.0
2.914286 1.006250 0.0
2.957143 1.006250 0.0
3.000000 1.006250 0.0
1.500000 1.050000 0.0
1.542857 1.050000 0.0
1.585714 1.050000 0.0
1.628571 1.050000 0.0
1.671429 1.050000 0.0
1.714286 1.050000 0.0
1.757143 1.050000 0.0
1.800000 1.050000 0.0
1.842857 1.050000 0.0
1.885714 1.050000 0.0
1.928571 1.050000 0.0
1.971429 1.050000 0.0
2.014286 1.050000 0.0
2.057143 1.050000 0.0
2.100000 1.050000 0.0
2.142857 1.050000 0.0
2.185714 1.050000 0.0
2.228571 1.050000 0.0
2.271429 1.050000 0.0
2.314286 1.050000 0.0
2.357143 1.050000 0.0
2.400000 1.050000 0.0
2.442857 1.050000 0.0
2.485714 1.050000 0.0
2.528571 1.050000 0.0
2.571429 1.050000 0.0
2.614286 1.050000 0.0
2.657143 1.050000 0.0
2.700000 1.050000 0.0
2.742857 1.050000 0.0
2.785714 1.050000 0.0
2.828571 1.050000 0.0
2.871429 1.050000 0.0
2.914286 1.050000 0.0
2.957143 1.050000 0.0
3.000000 1.050000 0.0
1.500000 1.093750 0.0
1.542857 1.093750 0.0
1.585714 1.093750 0.0
1.628571 1.093750 0.0
1.671429 1.093750 0.0
1.714286 1.093750 0.0
1.757143 1.093750 0.0
1.800000 1.093750 0.0
1.842857 1.093750 0.0
1.885714 1.093750 0.0
1.928571 1.093750 0.0
1.971429 1.093750 0.0
2.014286 1.093750 0.0
2.057143 1.093750 0.0
2.100000 1.093750 0.0
2.142857 1.093750 0.0
2.185714 1.093750 0.0
2.228571 1.093750 0.0
2.271429 1.093750 0.0
2.314286 1.093750 0.0
2.357143 1.093750 0.0
2.400000 1.093750 0.0
2.442857 1.093750 0.0
2.485714 1.093750 0.0
2.528571 1.093750 0.0
2.571429 1.093750 0.0
2.614286 1.093750 0.0
2.657143 1.093750 0.0
2.700000 1.093750 0.0
2.742857 1.093750 0.0
2.785714 1.093750 0.0
2.828571 1.093750 0.0
2.871429 1.093750 0.0
2.914286 1.093750 0.0
2.957143 1.093750 0.0
3.000000 1.093750 0.0
1.500000 1.137500 0.0
1.542857 1.137500 0.0
1.585714 1.137500 0.0
1.628571 1.137500 0.0
1.671429 1.137500 0.0
1.714286 1.137500 0.0
1.757143 1.137500 0.0
1.800000 1.137500 0.0
1.842857 1.137500 0.0
1.885714 1.137500 0.0
1.928571 1.137500 0.0
1.971429 1.137500 0.0
2.014286 1.137500 0.0
2.057143 1.137500 0.0
2.100000 1.137500 0.0
2.142857 1.137500 0.0
2.185714 1.137500 0.0
2.228571 1.137500 0.0
2.271429 1.137500 0.0
2.314286 1.137500 0.0
2.357143 1.137500 0.0
2.400000 1.137500 0.0
2.442857 1.137500 0.0
2.485714 1.137500 0.0
2.528571 1.137500 0.0
2.571429 1.137500 0.0
2.614286 1.137500 0.0
2.657143 1.137500 0.0
2.700000 1.137500 0.0
2.742857 1.137500 0.0
2.785714 1.137500 0.0
2.828571 1.137500 0.0
2.871429 1.137500 0.0
2.914286 1.137500 0.0
2.957143 1.137500 0.0
3.000000 1.137500 0.0
1.500000 1.181250 0.0
1.542857 1.181250 0.0
1.585714 1.181250 0.0
1.628571 1.181250 0.0
1.671429 1.181250 0.0
1.714286 1.181250 0.0
1.757143 1.181250 0.0
1.800000 1.181250 0.0
1.842857 1.181250 0.0
1.885714 1.181250 0.0
1.928571 1.181250 0.0
1.971429 1.181250 0.0
2.014286 1.181250 0.0
2.057143 1.181250 0.0
2.100000 1.181250 0.0
2.142857 1.181250 0.0
2.185714 1.181250 0.0
2.228571 1.181250 0.0
2.271429 1.181250 0.0
2.314286 1.181250 0.0
2.357143 1.181250 0.0
2.400000 1.181250 0.0
2.442857 1.181250 0.0
2.485714 1.181250 0.0
2.528571 1.181250 0.0
2.571429 1.181250 0.0
2.614286 1.181250 0.0
2.657143 1.181250 0.0
2.700000 1.181250 0.0
2.742857 1.181250 0.0
2.785714 1.181250 0.0
2.828571 1.181250 0.0
2.871429 1.181250 0.0
2.914286 1.181250 0.0
2.957143 1.181250 0.0
3.000000 1.181250 0.0
1.500000 1.225000 0.0
1.542857 1.225000 0.0
1.585714 1.225000 0.0
1.628571 1.225000 0.0
1.671429 1.225000 0.0
1.714286 1.225000 0.0
1.757143 1.225000 0.0
1.800000 1.225000 0.0
1.842857 1.225000 0.0
1.885714 1.225000 0.0
1.928571 1.225000 0.0
1.971429 1.225000 0.0
2.014286 1.225000 0.0
2.057143 1.225000 0.0
2.100000 1.225000 0.0
2.142857 1.225000 0.0
2.185714 1.225000 0.0
2.228571 1.225000 0.0
2.271429 1.225000 0.0
2.314286 1.225000 0.0
2.357143 1.225000 0.0
2.400000 1.225000 0.0
2.442857 1.225000 0.0
2.485714 1.225000 0.0
2.528571 1.225000 0.0
2.571429 1.225000 0.0
2.614286 1.225000 0.0
2.657143 1.225000 0.0
2.700000 1.225000 0.0
2.742857 1.225000 0.0
2.785714 1.225000 0.0
2.828571 1.225000 0.0
2.871429 1.225000 0.0
2.914286 1.225000 0.0
2.957143 1.225000 0.0
3.000000 1.225000 0.0
1.500000 1.268750 0.0
1.542857 1.268750 0.0
1.585714 1.268750 0.0
1.628571 1.268750 0.0
1.671429 1.268750 0.0
1.714286 1.268750 0.0
1.757143 1.268750 0.0
1.800000 1.268750 0.0
1.842857 1.268750 0.0
1.885714 1.268750 0.0
1.928571 1.268750 0.0
1.971429 1.268750 0.0
2.014286 1.268750 0.0
2.057143 1.268750 0.0
2.100000 1.268750 0.0
2.142857 1.268750 0.0
2.185714 1.268750 0.0
2.228571 1.268750 0.0
2.271429 1.268750 0.0
2.314286 1.268750 0.0
2.357143 1.268750 0.0
2.400000 1.268750 0.0
2.442857 1.268750 0.0
2.485714 1.268750 0.0
2.528571 1.268750 0.0
2.571429 1.268750 0.0
2.614286 1.268750 0.0
2.657143 1.268750 0.0
2.700000 1.268750 0.0
2.742857 1.268750 0.0
2.785714 1.268750 0.0
2.828571 1.268750 0.0
2.871429 1.268750 0.0
2.914286 1.268750 0.0
2.957143 1.268750 0.0
3.000000 1.268750 0.0
1.500000 1.312500 0.0
1.542857 1.312500 0.0
1.585714 1.312500 0.0
1.628571 1.312500 0.0
1.671429 1.312500 0.0
1.714286 1.312500 0.0
1.757143 1.312500 0.0
1.800000 1.312500 0.0
1.842857 1.312500 0.0
1.885714 1.312500 0.0
1.928571 1.312500 0.0
1.971429 1.312500 0.0
2.014286 1.312500 0.0
2.057143 1.312500 0.0
2.100000 1.312500 0.0
2.142857 1.312500 0.0
2.185714 1.312500 0.0
2.228571 1.312500 0.0
2.271429 1.312500 0.0
2.314286 1.312500 0.0
2.357143 1.312500 0.0
2.400000 1.312500 0.0
2.442857 1.312500 0.0
2.485714 1.312500 0.0
2.528571 1.312500 0.0
2.571429 1.312500 0.0
2.614286 1.312500 0.0
2.657143 1.312500 0.0
2.700000 1.312500 0.0
2.742857 1.312500 0.0
2.785714 1.312500 0.0
2.828571 1.312500 0.0
2.871429 1.312500 0.0
2.914286 1.312500 0.0
2.957143 1.312500 0.0
3.000000 1.312500 0.0
1.500000 1.356250 0.0
1.542857 1.356250 0.0
1.585714 1.356250 0.0
1.628571 1.356250 0.0
1.671429 1.356250 0.0
1.714286 1.356250 0.0
1.757143 1.356250 0.0
1.800000 1.356250 0.0
1.842857 1.356250 0.0
1.885714 1.356250 0.0
1.928571 1.356250 0.0
1.971429 1.356250 0.0
2.014286 1.356250 0.0
2.057143 1.356250 0.0
2.100000 1.356250 0.0
2.142857 1.356250 0.0
2.185714 1.356250 0.0
2.228571 1.356250 0.0
2.271429 1.356250 0.0
2.314286 1.356250 0.0
2.357143 1.356250 0.0
2.400000 1.356250 0.0
2.442857 1.356250 0.0
2.485714 1.356250 0.0
2.528571 1.356250 0.0
2.571429 1.356250 0.0
2.614286 1.356250 0.0
2.657143 1.356250 0.0
2.700000 1.356250 0.0
2.742857 1.356250 0.0
2.785714 1.356250 0.0
2.828571 1.356250 0.0
2.871429 1.356250 0.0
2.914286 1.356250 0.0
2.957143 1.356250 0.0
3.000000 1.356250 0.0
1.500000 1.400000 0.0
1.542857 1.400000 0.0
1.585714 1.400000 0.0
1.628571 1.400000 0.0
1.671429 1.400000 0.0
1.714286 1.400000 0.0
1.757143 1.400000 0.0
1.800000 1.400000 0.0
1.842857 1.400000 0.0
1.885714 1.400000 0.0
1.928571 1.400000 0.0
1.971429 1.400000 0.0
2.014286 1.400000 0.0
2.057143 1.400000 0.0
2.100000 1.400000 0.0
2.142857 1.400000 0.0
2.185714 1.400000 0.0
2.228571 1.400000 0.0
2.271429 1.400000 0.0
2.314286 1.400000 0.0
2.357143 1.400000 0.0
2.400000 1.400000 0.0
2.442857 1.400000 0.0
2.485714 1.400000 0.0
2.528571 1.400000 0.0
2.571429 1.400000 0.0
2.614286 1.400000 0.0
2.657143 1.400000 0.0
2.700000 1.400000 0.0
2.742857 1.400000 0.0
2.785714 1.400000 0.0
2.828571 1.400000 0.0
2.871429 1.400000 0.0
2.914286 1.400000 0.0
2.957143 1.400000 0.0
3.000000 1.400000 0.0
1.500000 1.443750 0.0
1.542857 1.443750 0.0
1.585714 1.443750 0.0
1.628571 1.443750 0.0
1.671429 1.443750 0.0
1.714286 1.443750 0.0
1.757143 1.443750 0.0
1.800000 1.443750 0.0
1.842857 1.443750 0.0
1.885714 1.443750 0.0
1.928571 1.443750 0.0
1.971429 1.443750 0.0
2.014286 1.443750 0.0
2.057143 1.443750 0.0
2.100000 1.443750 0.0
2.142857 1.443750 0.0
2.185714 1.443750 0.0
2.228571 1.443750 0.0
2.271429 1.443750 0.0
2.314286 1.443750 0.0
2.357143 1.443750 0.0
2.400000 1.443750 0.0
2.442857 1.443750 0.0
2.485714 1.443750 0.0
2.528571 1.443750 0.0
2.571429 1.443750 0.0
2.614286 1.443750 0.0
2.657143 1.443750 0.0
2.700000 1.443750 0.0
2.742857 1.443750 0.0
2.785714 1.443750 0.0
2.828571 1.443750 0.0
2.871429 1.443750 0.0
2.914286 1.443750 0.0
2.957143 1.443750 0.0
3.000000 1.443750 0.0
1.500000 1.487500 0.0
1.542857 1.487500 0.0
1.585714 1.487500 0.0
1.628571 1.487500 0.0
1.671429 1.487500 0.0
1.714286 1.487500 0.0
1.757143 1.487500 0.0
1.800000 1.487500 0.0
1.842857 1.487500 0.0
1.885714 1.487500 0.0
1.928571 1.487500 0.0
1.971429 1.487500 0.0
2.014286 1.487500 0.0
2.057143 1.487500 0.0
2.100000 1.487500 0.0
2.142857 1.487500 0.0
2.185714 1.487500 0.0
2.228571 1.487500 0.0
2.271429 1.487500 0.0
2.314286 1.487500 0.0
2.357143 1.487500 0.0
2.400000 1.487500 0.0
2.442857 1.487500 0.0
2.485714 1.487500 0.0
2.528571 1.487500 0.0
2.571429 1.487500 0.0
2.614286 1.487500 0.0
2.657143 1.487500 0.0
2.700000 1.487500 0.0
2.742857 1.487500 0.0
2.785714 1.487500 0.0
2.828571 1.487500 0.0
2.871429 1.487500 0.0
2.914286 1.487500 0.0
2.957143 1.487500 0.0
3.000000 1.487500 0.0
1.500000 1.531250 0.0
1.542857 1.531250 0.0
1.585714 1.531250 0.0
1.628571 1.531250 0.0
1.671429 1.531250 0.0
1.714286 1.531250 0.0
1.757143 1.531250 0.0
1.800000 1.531250 0.0
1.842857 1.531250 0.0
1.885714 1.531250 0.0
1.928571 1.531250 0.0
1.971429 1.531250 0.0
2.014286 1.531250 0.0
2.057143 1.531250 0.0
2.100000 1.531250 0.0
2.142857 1.531250 0.0
2.185714 1.531250 0.0
2.228571 1.531250 0.0
2.271429 1.531250 0.0
2.314286 1.531250 0.0
2.357143 1.531250 0.0
2.400000 1.531250 0.0
2.442857 1.531250 0.0
2.485714 1.531250 0.0
2.528571 1.531250 0.0
2.571429 1.531250 0.0
2.614286 1.531250 0.0
2.657143 1.531250 0.0
2.700000 1.531250 0.0
2.742857 1.531250 0.0
2.785714 1.531250 0.0
2.828571 1.531250 0.0
2.871429 1.531250 0.0
2.914286 1.531250 0.0
2.957143 1.531250 0.0
3.000000 1.531250 0.0
1.500000 1.575000 0.0
1.542857 1.575000 0.0
1.585714 1.575000 0.0
1.628571 1.575000 0.0
1.671429 1.575000 0.0
1.714286 1.575000 0.0
1.757143 1.575000 0.0
1.800000 1.575000 0.0
1.842857 1.575000 0.0
1.885714 1.575000 0.0
1.928571 1.575000 0.0
1.971429 1.575000 0.0
2.014286 1.575000 0.0
2.057143 1.575000 0.0
2.100000 1.575000 0.0
2.142857 1.575000 0.0
2.185714 1.575000 0.0
2.228571 1.575000 0.0
2.271429 1.575000 0.0
2.314286 1.575000 0.0
2.357143 1.575000 0.0
2.400000 1.575000 0.0
2.442857 1.575000 0.0
2.485714 1.575000 0.0
2.528571 1.575000 0.0
2.571429 1.575000 0.0
2.614286 1.575000 0.0
2.657143 1.575000 0.0
2.700000 1.575000 0.0
2.742857 1.575000 0.0
2.785714 1.575000 0.0
2.828571 1.575000 0.0
2.871429 1.575000 0.0
2.914286 1.575000 0.0
2.957143 1.575000 0.0
3.000000 1.575000 0.0
1.500000 1.618750 0.0
1.542857 1.618750 0.0
1.585714 1.618750 0.0
1.628571 1.618750 0.0
1.671429 1.618750 0.0
1.714286 1.618750 0.0
1.757143 1.618750 0.0
1.800000 1.618750 0.0
1.842857 1.618750 0.0
1.885714 1.618750 0.0
1.928571 1.618750 0.0
1.971429 1.618750 0.0
2.014286 1.618750 0.0
2.057143 1.618750 0.0
2.100000 1.618750 0.0
2.142857 1.618750 0.0
2.185714 1.618750 0.0
2.228571 1.618750 0.0
2.271429 1.618750 0.0
2.314286 1.618750 0.0
2.357143 1.618750 0.0
2.400000 1.618750 0.0
2.442857 1.618750 0.0
2.485714 1.618750 0.0
2.528571 1.618750 0.0
2.571429 1.618750 0.0
2.614286 1.618750 0.0
2.657143 1.618750 0.0
2.700000 1.618750 0.0
2.742857 1.618750 0.0
2.785714 1.618750 0.0
2.828571 1.618750 0.0
2.871429 1.618750 0.0
2.914286 1.618750 0.0
2.957143 1.618750 0.0
3.000000 1.618750 0.0
1.500000 1.662500 0.0
1.542857 1.662500 0.0
1.585714 1.662500 0.0
1.628571 1.662500 0.0
1.671429 1.662500 0.0
1.714286 1.662500 0.0
1.757143 1.662500 0.0
1.800000 1.662500 0.0
1.842857 1.662500 0.0
1.885714 1.662500 0.0
1.928571 1.662500 0.0
1.971429 1.662500 0.0
2.014286 1.662500 0.0
2.057143 1.662500 0.0
2.100000 1.662500 0.0
2.142857 1.662500 0.0
2.185714 1.662500 0.0
2.228571 1.662500 0.0
2.271429 1.662500 0.0
2.314286 1.662500 0.0
2.357143 1.662500 0.0
2.400000 1.662500 0.0
2.442857 1.662500 0.0
2.485714 1.662500 0.0
2.528571 1.662500 0.0
2.571429 1.662500 0.0
2.614286 1.662500 0.0
2.657143 1.662500 0.0
2.700000 1.662500 0.0
2.742857 1.662500 0.0
2.785714 1.662500 0.0
2.828571 1.662500 0.0
2.871429 1.662500 0.0
2.914286 1.662500 0.0
2.957143 1.662500 0.0
3.000000 1.662500 0.0
1.500000 1.706250 0.0
1.542857 1.706250 0.0
1.585714 1.706250 0.0
1.628571 1.706250 0.0
1.671429 1.706250 0.0
1.714286 1.706250 0.0
1.757143 1.706250 0.0
1.800000 1.706250 0.0
1.842857 1.706250 0.0
1.885714 1.706250 0.0
1.928571 1.706250 0.0
1.971429 1.706250 0.0
2.014286 1.706250 0.0
2.057143 1.706250 0.0
2.100000 1.706250 0.0
2.142857 1.706250 0.0
2.185714 1.706250 0.0
2.228571 1.706250 0.0
2.271429 1.706250 0.0
2.314286 1.706250 0.0
2.357143 1.706250 0.0
2.400000 1.706250 0.0
2.442857 1.706250 0.0
2.485714 1.706250 0.0
2.528571 1.706250 0.0
2.571429 1.706250 0.0
2.614286 1.706250 0.0
2.657143 1.706250 0.0
2.700000 1.706250 0.0
2.742857 1.706250 0.0
2.785714 1.706250 0.0
2.828571 1.706250 0.0
2.871429 1.706250 0.0
2.914286 1.706250 0.0
2.957143 1.706250 0.0
3.000000 1.706250 0.0
1.500000 1.750000 0.0
1.542857 1.750000 0.0
1.585714 1.750000 0.0
1.628571 1.750000 0.0
1.671429 1.750000 0.0
1.714286 1.750000 0.0
1.757143 1.750000 0.0
1.800000 1.750000 0.0
1.842857 1.750000 0.0
1.885714 1.750000 0.0
1.928571 1.750000 0.0
1.971429 1.750000 0.0
2.014286 1.750000 0.0
2.057143 1.750000 0.0
2.100000 1.750000 0.0
2.142857 1.750000 0.0
2.185714 1.750000 0.0
2.228571 1.750000 0.0
2.271429 1.750000 0.0
2.314286 1.750000 0.0
2.357143 1.750000 0.0
2.400000 1.750000 0.0
2.442857 1.750000 0.0
2.485714 1.750000 0.0
2.528571 1.750000 0.0
2.571429 1.750000 0.0
2.614286 1.750000 0.0
2.657143 1.750000 0.0
2.700000 1.750000 0.0
2.742857 1.750000 0.0
2.785714 1.750000 0.0
2.828571 1.750000 0.0
2.871429 1.750000 0.0
2.914286 1.750000 0.0
2.957143 1.750000 0.0
3.000000 1.750000 0.0
</DataArray></Points>
<PointData>
<DataArray NumberOfComponents="1" format="ascii" type ="Float32" Name="phi">
1.332774
1.323644
1.305664
1.288901
1.273489
1.259335
1.246351
1.234529
1.223934
1.214669
1.206859
1.200569
1.195828
1.192628
1.190965
1.190856
1.192320
1.195358
1.199941
1.206066
1.213778
1.223085
1.233912
1.246140
1.259566
1.274050
1.289568
1.306220
1.324294
1.343980
1.365009
1.386909
1.409361
1.432237
1.455555
1.458656
1.293139
1.283754
1.265487
1.248550
1.232838
1.218213
1.204684
1.192341
1.181298
1.171687
1.163633
1.157174
1.152284
1.148956
1.147221
1.147105
1.148634
1.151814
1.156591
1.162918
1.170800
1.180298
1.191455
1.204203
1.218322
1.233576
1.249829
1.267007
1.285188
1.304727
1.325944
1.348610
1.372129
1.396116
1.420444
1.432685
1.253995
1.244415
1.225977
1.208669
1.192359
1.177088
1.162963
1.150102
1.138653
1.128777
1.120531
1.113870
1.108772
1.105286
1.103472
1.103350
1.104943
1.108274
1.113298
1.119938
1.128105
1.137791
1.149110
1.162164
1.176841
1.192879
1.210034
1.228086
1.246932
1.266641
1.287630
1.310374
1.334620
1.359710
1.385223
1.398045
1.215389
1.205837
1.186907
1.168900
1.151855
1.135905
1.121202
1.107894
1.096166
1.086087
1.077580
1.070615
1.065258
1.061607
1.059717
1.059591
1.061245
1.064716
1.069990
1.076999
1.085611
1.095702
1.107265
1.120414
1.135312
1.151918
1.169957
1.189044
1.208878
1.229391
1.250649
1.273104
1.297312
1.323102
1.349738
1.363166
1.177111
1.167628
1.147917
1.129102
1.111301
1.094707
1.079544
1.065971
1.054020
1.043601
1.034680
1.027344
1.021722
1.017917
1.015958
1.015832
1.017548
1.021142
1.026628
1.033986
1.043104
1.053802
1.065928
1.079389
1.094334
1.111058
1.129641
1.149684
1.170652
1.192275
1.214466
1.237276
1.261168
1.286846
1.314104
1.328004
1.138924
1.129489
1.108913
1.089273
1.070781
1.053741
1.038329
1.024487
1.012103
1.001155
0.991747
0.984034
0.978169
0.974229
0.972201
0.972077
0.973873
0.977590
0.983245
0.990883
1.000456
1.011820
1.024721
1.038898
1.054275
1.071033
1.089611
1.110130
1.132107
1.154958
1.178351
1.202194
1.226535
1.251892
1.278869
1.292795
1.100820
1.091366
1.069919
1.049559
1.030664
1.013405
0.997645
0.983238
0.970201
0.958655
0.948760
0.940704
0.934634
0.930564
0.928450
0.928325
0.930235
0.934135
0.939976
0.947808
0.957691
0.969615
0.983330
0.998439
1.014714
1.032060
1.050664
1.071049
1.093456
1.117359
1.142042
1.167159
1.192623
1.218489
1.245175
1.258815
1.063017
1.053311
1.031191
1.010472
0.991348
0.973639
0.957167
0.941982
0.928238
0.916096
0.905760
0.897437
0.891183
0.886938
0.884704
0.884571
0.886611
0.890777
0.896942
0.905028
0.915084
0.927307
0.941647
0.957720
0.975109
0.993509
1.012833
1.033284
1.055463
1.079744
1.105529
1.131976
1.158759
1.185810
1.213178
1.226955
1.025722
1.015672
0.993268
0.972283
0.952592
0.934037
0.916673
0.900669
0.886232
0.873560
0.862897
0.854355
0.847839
0.843332
0.840956
0.840814
0.842971
0.847429
0.854061
0.862639
0.873027
0.885364
0.899935
0.916713
0.935210
0.954871
0.975396
0.996710
1.018994
1.042969
1.069095
1.096666
1.124802
1.153217
1.181844
1.196208
0.989134
0.979016
0.956248
0.934588
0.913969
0.894432
0.876144
0.859355
0.844321
0.831280
0.820355
0.811460
0.804532
0.799716
0.797203
0.797057
0.799312
0.804025
0.811142
0.820394
0.831486
0.844253
0.858875
0.875811
0.895057
0.915953
0.937858
0.960490
0.983760
1.007886
1.033645
1.061526
1.090801
1.120611
1.150635
1.165670
0.953245
0.943258
0.919687
0.897048
0.875380
0.854832
0.835692
0.818297
0.802854
0.789455
0.778073
0.768619
0.761200
0.756081
0.753449
0.753312
0.755659
0.760563
0.768072
0.778030
0.790049
0.803736
0.818901
0.835838
0.855171
0.876850
0.900081
0.924184
0.948864
0.974072
1.000038
1.027545
1.057102
1.088073
1.119466
1.135165
0.917756
0.907908
0.883333
0.859615
0.836886
0.815482
0.795777
0.777939
0.761981
0.747945
0.735858
0.725749
0.717835
0.712436
0.709698
0.709591
0.712075
0.717145
0.724912
0.735439
0.748401
0.763236
0.779543
0.797169
0.816476
0.838163
0.862214
0.887737
0.913957
0.940634
0.967761
0.995552
1.024795
1.056064
1.088413
1.104628
0.882576
0.872827
0.847180
0.822407
0.798875
0.776962
0.756767
0.738233
0.721423
0.706533
0.693644
0.682849
0.674467
0.668816
0.665961
0.665884
0.668599
0.673976
0.681950
0.692777
0.706471
0.722485
0.740178
0.759140
0.779240
0.800912
0.824939
0.851304
0.879011
0.907280
0.935920
0.964932
0.994565
1.025631
1.057906
1.074143
0.847870
0.838037
0.811396
0.785890
0.761888
0.739409
0.718347
0.698777
0.680976
0.665176
0.651443
0.639982
0.631197
0.625282
0.622248
0.622172
0.625174
0.631090
0.639538
0.650548
0.664539
0.681467
0.700577
0.721111
0.742697
0.765286
0.789344
0.815655
0.844218
0.874023
0.904275
0.934811
0.965673
0.996960
1.028146
1.043570
0.813830
0.803748
0.776474
0.750494
0.725835
0.702367
0.680149
0.659458
0.640658
0.623934
0.609386
0.597358
0.588163
0.581842
0.578548
0.578457
0.581715
0.588266
0.597589
0.609221
0.623350
0.640590
0.660778
0.682916
0.706226
0.730422
0.755517
0.781935
0.810453
0.841092
0.872855
0.905003
0.937292
0.969195
0.998199
1.011452
0.780629
0.770481
0.742696
0.715985
0.690278
0.665601
0.642166
0.620392
0.600655
0.583073
0.567798
0.555158
0.545325
0.538433
0.534853
0.534748
0.538198
0.545314
0.555671
0.568524
0.583437
0.600784
0.621280
0.644644
0.669734
0.695771
0.722551
0.750095
0.778791
0.809380
0.841964
0.875563
0.909166
0.941109
0.965498
0.974665
0.748370
0.738390
0.709769
0.682001
0.655092
0.629171
0.604634
0.581981
0.561406
0.542937
0.526796
0.513257
0.502544
0.495024
0.491164
0.491063
0.494679
0.502224
0.513557
0.527865
0.544296
0.562563
0.583196
0.606913
0.633347
0.661284
0.689956
0.719204
0.749061
0.779915
0.812650
0.846971
0.881143
0.910556
0.928047
0.932949
0.716942
0.707117
0.677429
0.648500
0.620392
0.593426
0.568091
0.544639
0.523064
0.503469
0.486166
0.471478
0.459783
0.451632
0.447488
0.447439
0.451300
0.459171
0.471271
0.487009
0.505255
0.525299
0.547030
0.570975
0.597819
0.627146
0.657724
0.688839
0.720373
0.752434
0.785608
0.819845
0.852490
0.875917
0.886696
0.889440
0.686299
0.676495
0.645688
0.615643
0.586582
0.558862
0.532747
0.508237
0.485377
0.464438
0.445783
0.429817
0.417114
0.408331
0.403853
0.403855
0.408226
0.416590
0.429161
0.446032
0.466161
0.488334
0.512034
0.537230
0.564411
0.594192
0.626114
0.659032
0.692360
0.726066
0.760152
0.793739
0.821566
0.837173
0.843579
0.845743
0.656432
0.646578
0.614784
0.583861
0.554050
0.525497
0.498299
0.472494
0.448235
0.425836
0.405712
0.388445
0.374764
0.365247
0.360267
0.360246
0.365364
0.374796
0.387990
0.405491
0.427140
0.451569
0.477595
0.504852
0.533361
0.563584
0.596006
0.630150
0.665154
0.700498
0.735448
0.766492
0.786453
0.795340
0.800064
0.802065
0.627273
0.617574
0.585061
0.553365
0.522652
0.493007
0.464579
0.437441
0.411748
0.387837
0.366264
0.347767
0.332984
0.322387
0.316698
0.316606
0.322482
0.333486
0.348184
0.366492
0.389002
0.415248
0.443693
0.473307
0.503855
0.535412
0.568401
0.603194
0.639407
0.675916
0.710203
0.734924
0.746586
0.752100
0.756489
0.769346
</DataArray>
<DataArray NumberOfComponents="1" format="ascii" type ="Float32" Name="u">
0.000249
-0.000371
-0.001001
-0.001675
-0.002426
-0.003280
-0.004255
-0.005363
-0.006605
-0.007974
-0.009451
-0.011006
-0.012599
-0.014172
-0.015657
-0.016981
-0.018069
-0.018864
-0.019342
-0.019518
-0.019449
-0.019215
-0.018899
-0.018567
-0.018265
-0.018011
-0.017813
-0.017665
-0.017561
-0.017492
-0.017450
-0.017426
-0.017415
-0.017412
-0.017411
-0.017411
0.000294
-0.000401
-0.001109
-0.001869
-0.002715
-0.003675
-0.004766
-0.005998
-0.007370
-0.008867
-0.010467
-0.012132
-0.013808
-0.015432
-0.016924
-0.018203
-0.019194
-0.019846
-0.020151
-0.020146
-0.019911
-0.019542
-0.019128
-0.018732
-0.018389
-0.018112
-0.017900
-0.017744
-0.017636
-0.017564
-0.017519
-0.017495
-0.017483
-0.017478
-0.017476
-0.017476
0.000318
-0.000470
-0.001275
-0.002139
-0.003097
-0.004178
-0.005399
-0.006766
-0.008273
-0.009901
-0.011620
-0.013382
-0.015126
-0.016776
-0.018245
-0.019447
-0.020307
-0.020787
-0.020897
-0.020703
-0.020305
-0.019812
-0.019313
-0.018863
-0.018489
-0.018193
-0.017970
-0.017808
-0.017695
-0.017620
-0.017574
-0.017548
-0.017536
-0.017531
-0.017530
-0.017530
0.000311
-0.000589
-0.001511
-0.002498
-0.003585
-0.004802
-0.006163
-0.007670
-0.009315
-0.011070
-0.012898
-0.014743
-0.016533
-0.018183
-0.019599
-0.020690
-0.021388
-0.021671
-0.021573
-0.021187
-0.020635
-0.020032
-0.019461
-0.018968
-0.018568
-0.018258
-0.018026
-0.017857
-0.017740
-0.017661
-0.017613
-0.017586
-0.017573
-0.017568
-0.017567
-0.017567
0.000264
-0.000769
-0.001828
-0.002955
-0.004187
-0.005551
-0.007059
-0.008711
-0.010490
-0.012366
-0.014290
-0.016199
-0.018012
-0.019634
-0.020965
-0.021915
-0.022424
-0.022490
-0.022177
-0.021605
-0.020911
-0.020211
-0.019581
-0.019052
-0.018632
-0.018308
-0.018067
-0.017891
-0.017768
-0.017686
-0.017634
-0.017605
-0.017591
-0.017586
-0.017585
-0.017585
0.000175
-0.001014
-0.002230
-0.003515
-0.004905
-0.006425
-0.008086
-0.009881
-0.011790
-0.013775
-0.015781
-0.017734
-0.019546
-0.021113
-0.022331
-0.023110
-0.023407
-0.023243
-0.022715
-0.021967
-0.021145
-0.020363
-0.019681
-0.019123
-0.018683
-0.018346
-0.018094
-0.017910
-0.017780
-0.017692
-0.017637
-0.017605
-0.017590
-0.017585
-0.017584
-0.017584
0.000046
-0.001323
-0.002717
-0.004177
-0.005737
-0.007421
-0.009235
-0.011171
-0.013203
-0.015286
-0.017358
-0.019337
-0.021124
-0.022610
-0.023686
-0.024270
-0.024336
-0.023936
-0.023198
-0.022286
-0.021351
-0.020496
-0.019771
-0.019184
-0.018724
-0.018371
-0.018107
-0.017913
-0.017774
-0.017680
-0.017620
-0.017586
-0.017569
-0.017563
-0.017561
-0.017561
-0.000111
-0.001683
-0.003277
-0.004929
-0.006671
-0.008526
-0.010496
-0.012571
-0.014719
-0.016889
-0.019012
-0.020998
-0.022740
-0.024119
-0.025027
-0.025393
-0.025215
-0.024577
-0.023639
-0.022577
-0.021542
-0.020623
-0.019856
-0.019240
-0.018757
-0.018387
-0.018107
-0.017900
-0.017751
-0.017649
-0.017583
-0.017545
-0.017526
-0.017519
-0.017518
-0.017518
-0.000272
-0.002074
-0.003890
-0.005753
-0.007691
-0.009725
-0.011855
-0.014068
-0.016328
-0.018578
-0.020741
-0.022717
-0.024389
-0.025636
-0.026352
-0.026480
-0.026050
-0.025180
-0.024054
-0.022859
-0.021733
-0.020753
-0.019943
-0.019294
-0.018785
-0.018392
-0.018093
-0.017870
-0.017708
-0.017597
-0.017524
-0.017482
-0.017460
-0.017452
-0.017451
-0.017451
-0.000407
-0.002465
-0.004527
-0.006622
-0.008773
-0.010998
-0.013297
-0.015653
-0.018025
-0.020350
-0.022542
-0.024491
-0.026071
-0.027159
-0.027658
-0.027535
-0.026851
-0.025761
-0.024464
-0.023147
-0.021936
-0.020895
-0.020037
-0.019350
-0.018808
-0.018387
-0.018065
-0.017823
-0.017646
-0.017523
-0.017442
-0.017395
-0.017370
-0.017361
-0.017359
-0.017359
-0.000474
-0.002814
-0.005150
-0.007501
-0.009888
-0.012324
-0.014807
-0.017315
-0.019805
-0.022203
-0.024413
-0.026315
-0.027778
-0.028679
-0.028940
-0.028559
-0.027632
-0.026339
-0.024889
-0.023459
-0.022164
-0.021057
-0.020144
-0.019410
-0.018829
-0.018374
-0.018024
-0.017758
-0.017563
-0.017426
-0.017335
-0.017281
-0.017253
-0.017242
-0.017240
-0.017240
-0.000432
-0.003077
-0.005714
-0.008351
-0.011003
-0.013676
-0.016365
-0.019043
-0.021658
-0.024127
-0.026341
-0.028172
-0.029488
-0.030178
-0.030190
-0.029556
-0.028408
-0.026938
-0.025351
-0.023814
-0.022430
-0.021247
-0.020270
-0.019480
-0.018850
-0.018355
-0.017969
-0.017676
-0.017458
-0.017304
-0.017201
-0.017140
-0.017107
-0.017095
-0.017091
-0.017091
-0.000241
-0.003210
-0.006174
-0.009130
-0.012080
-0.015024
-0.017947
-0.020816
-0.023563
-0.026096
-0.028294
-0.030025
-0.031164
-0.031626
-0.031393
-0.030534
-0.029198
-0.027580
-0.025872
-0.024228
-0.022747
-0.021476
-0.020421
-0.019564
-0.018876
-0.018330
-0.017903
-0.017576
-0.017331
-0.017156
-0.017039
-0.016967
-0.016929
-0.016914
-0.016910
-0.016910
0.000126
-0.003179
-0.006493
-0.009799
-0.013083
-0.016333
-0.019521
-0.022595
-0.025476
-0.028054
-0.030205
-0.031803
-0.032744
-0.032981
-0.032532
-0.031495
-0.030022
-0.028290
-0.026473
-0.024718
-0.023127
-0.021753
-0.020606
-0.019668
-0.018910
-0.018305
-0.017828
-0.017459
-0.017181
-0.016980
-0.016844
-0.016761
-0.016716
-0.016697
-0.016692
-0.016692
0.000672
-0.002969
-0.006647
-0.010328
-0.013980
-0.017567
-0.021038
-0.024321
-0.027316
-0.029906
-0.031969
-0.033402
-0.034142
-0.034182
-0.033578
-0.032435
-0.030888
-0.029083
-0.027171
-0.025298
-0.023583
-0.022090
-0.020834
-0.019801
-0.018960
-0.018284
-0.017746
-0.017326
-0.017007
-0.016775
-0.016616
-0.016517
-0.016464
-0.016441
-0.016434
-0.016434
0.001366
-0.002598
-0.006641
-0.010710
-0.014747
-0.018682
-0.022432
-0.025897
-0.028960
-0.031507
-0.033437
-0.034690
-0.035251
-0.035156
-0.034483
-0.033326
-0.031782
-0.029953
-0.027966
-0.025977
-0.024126
-0.022497
-0.021116
-0.019972
-0.019033
-0.018272
-0.017661
-0.017179
-0.016810
-0.016539
-0.016352
-0.016233
-0.016168
-0.016139
-0.016131
-0.016131
0.002134
-0.002128
-0.006521
-0.010968
-0.015375
-0.019630
-0.023610
-0.027187
-0.030241
-0.032677
-0.034439
-0.035519
-0.035952
-0.035809
-0.035170
-0.034102
-0.032647
-0.030857
-0.028836
-0.026747
-0.024758
-0.022983
-0.021463
-0.020190
-0.019137
-0.018274
-0.017575
-0.017020
-0.016590
-0.016271
-0.016047
-0.015904
-0.015823